--------------------------------------------------------------------------
[[13345,1],3]: A high-performance Open MPI point-to-point messaging module
was unable to find any relevant network interfaces:

Module: OpenFabrics (openib)
  Host: node-3-13

Another transport will be used instead, although this may result in
lower performance.
--------------------------------------------------------------------------
 running on    8 total cores
 distrk:  each k-point on    8 cores,    1 groups
 distr:  one band on    4 cores,    2 groups
 using from now: INCAR     
 vasp.5.4.4.18Apr17-6-g9f103f2a35 (build Jun 24 2018 22:36:06) complex          
  
 POSCAR found type information on POSCAR  Ga N 
 POSCAR found :  2 types and       4 ions
 LDA part: xc-table for Pade appr. of Perdew
 POSCAR, INCAR and KPOINTS ok, starting setup
 FFT: planning ...
 WAVECAR not read
 WARNING: random wavefunctions but no delay for mixing, default for NELMDL
 entering main loop
       N       E                     dE             d eps       ncg     rms          rms(c)
DAV:   1     0.281858620582E+03    0.28186E+03   -0.18471E+04 22860   0.320E+03
DAV:   2     0.705257748894E+01   -0.27481E+03   -0.26514E+03 24134   0.548E+02
DAV:   3    -0.273126230600E+02   -0.34365E+02   -0.33894E+02 24434   0.157E+02
DAV:   4    -0.285522078483E+02   -0.12396E+01   -0.12370E+01 28524   0.324E+01
DAV:   5    -0.285711256210E+02   -0.18918E-01   -0.18911E-01 24294   0.368E+00    0.121E+01
RMM:   6    -0.237439039789E+02    0.48272E+01   -0.15598E+01 29292   0.212E+01    0.408E+00
RMM:   7    -0.238350733190E+02   -0.91169E-01   -0.16077E+00 28587   0.105E+01    0.267E+00
RMM:   8    -0.238706060309E+02   -0.35533E-01   -0.24125E-01 28552   0.427E+00    0.256E-01
RMM:   9    -0.238708186800E+02   -0.21265E-03   -0.20886E-02 26861   0.154E+00    0.120E-01
RMM:  10    -0.238714772544E+02   -0.65857E-03   -0.56948E-03 29615   0.488E-01    0.578E-02
RMM:  11    -0.238715575497E+02   -0.80295E-04   -0.77432E-04 29613   0.291E-01    0.241E-02
RMM:  12    -0.238715448033E+02    0.12746E-04   -0.16367E-04 31733   0.105E-01    0.110E-02
WARNING in EDDRMM: call to ZHEGV failed, returncode =   8  4     10
RMM:  13    -0.238715493174E+02   -0.45140E-05   -0.37562E-05 32706   0.417E-02    0.958E-03
RMM:  14    -0.238715468412E+02    0.24762E-05   -0.14067E-05 29726   0.312E-02    0.652E-04
RMM:  15    -0.238715470478E+02   -0.20663E-06   -0.20151E-06 22303   0.101E-02    0.161E-03
 num prob  num prob  num prob  num prob  num prob  num prob  num prob  num prob  num prob  num prob  num prob  num prob  num prob  num prob  num prob  num prob  num prob  num prob  num prob  num prob  num prob  num prob  num prob  num prob  num prob  num prob  num prob  num prob  num prob RMM:  16    -0.238715469470E+02    0.10077E-06   -0.44253E-07 20299   0.553E-03    0.384E-04
 num prob  num prob  num prob  num prob  num prob  num prob  num prob  num prob  num prob  num prob  num prob  num prob  num prob  num prob  num prob  num prob  num prob  num prob  num prob  num prob  num prob RMM:  17    -0.238715469528E+02   -0.57898E-08   -0.80423E-08 15617   0.280E-03
   1 F= -.25015914E+02 E0= -.25015914E+02  d E =-.180316E-16
Job exited.
