    4    4    1    1
  0.1019039E+02  0.3069867E-09  0.3069867E-09  0.4994373E-09  0.5000000E-15
  1.000000000000000E-004
  CAR 
 /net/hulk/PMD/skwon/GaN/Wurtzite/vasp/U 
     36    490     22
