    4    4    1    1
  0.1019039E+02  0.3069867E-09  0.3069867E-09  0.4994373E-09  0.5000000E-15
  1.000000000000000E-004
  CAR 
 /net/hulk/PMD/skwon/GaN/Wurtzite/vasp/U 
     36    490     22
 
  0.0000000E+00  0.0000000E+00  0.0000000E+00  0.2040816E-02
    1      -11.165800   1.000000
    2      -10.478609   1.000000
    3      -10.478603   1.000000
    4      -10.477932   1.000000
    5      -10.393392   1.000000
    6      -10.393388   1.000000
    7      -10.227785   1.000000
    8       -9.814866   1.000000
    9       -9.814862   1.000000
   10       -9.714066   1.000000
   11       -9.714065   1.000000
   12       -6.674556   1.000000
   13       -1.140002   1.000000
   14        5.233885   1.000000
   15        5.233926   1.000000
   16        6.110651   1.000000
   17        6.144268   1.000000
   18        6.144290   1.000000
   19        9.455406   0.000000
   20       11.551323   0.000000
   21       16.378863   0.000000
   22       16.999252   0.000000
 
  0.7246377E-02  0.0000000E+00  0.0000000E+00  0.2040816E-02
    1      -11.165827   1.000000
    2      -10.480940   1.000000
    3      -10.478507   1.000000
    4      -10.477692   1.000000
    5      -10.393328   1.000000
    6      -10.393280   1.000000
    7      -10.224865   1.000000
    8       -9.814922   1.000000
    9       -9.814880   1.000000
   10       -9.714164   1.000000
   11       -9.714037   1.000000
   12       -6.674078   1.000000
   13       -1.139148   1.000000
   14        5.229384   1.000000
   15        5.232678   1.000000
   16        6.110014   1.000000
   17        6.139734   1.000000
   18        6.143967   1.000000
   19        9.459874   0.000000
   20       11.555161   0.000000
   21       16.376304   0.000000
   22       16.994943   0.000000
 
  0.1449275E-01  0.0000000E+00  0.0000000E+00  0.2040816E-02
    1      -11.165842   1.000000
    2      -10.487259   1.000000
    3      -10.478208   1.000000
    4      -10.477363   1.000000
    5      -10.393107   1.000000
    6      -10.392952   1.000000
    7      -10.216328   1.000000
    8       -9.815092   1.000000
    9       -9.814930   1.000000
   10       -9.714453   1.000000
   11       -9.713950   1.000000
   12       -6.672443   1.000000
   13       -1.136582   1.000000
   14        5.216258   1.000000
   15        5.229037   1.000000
   16        6.107634   1.000000
   17        6.126769   1.000000
   18        6.143046   1.000000
   19        9.473248   0.000000
   20       11.566695   0.000000
   21       16.369556   0.000000
   22       17.006053   0.000000
 
  0.2173913E-01  0.0000000E+00  0.0000000E+00  0.2040816E-02
    1      -11.165863   1.000000
    2      -10.496945   1.000000
    3      -10.477711   1.000000
    4      -10.476863   1.000000
    5      -10.392739   1.000000
    6      -10.392402   1.000000
    7      -10.202892   1.000000
    8       -9.815376   1.000000
    9       -9.815013   1.000000
   10       -9.714934   1.000000
   11       -9.713804   1.000000
   12       -6.669704   1.000000
   13       -1.132307   1.000000
   14        5.194534   1.000000
   15        5.222996   1.000000
   16        6.097177   1.000000
   17        6.111935   1.000000
   18        6.141508   1.000000
   19        9.495251   0.000000
   20       11.585789   0.000000
   21       16.358292   0.000000
   22       16.999960   0.000000
 
  0.2898551E-01  0.0000000E+00  0.0000000E+00  0.2040816E-02
    1      -11.165882   1.000000
    2      -10.509171   1.000000
    3      -10.477017   1.000000
    4      -10.476176   1.000000
    5      -10.392225   1.000000
    6      -10.391628   1.000000
    7      -10.185400   1.000000
    8       -9.815773   1.000000
    9       -9.815127   1.000000
   10       -9.715599   1.000000
   11       -9.713602   1.000000
   12       -6.665839   1.000000
   13       -1.126325   1.000000
   14        5.164374   1.000000
   15        5.214646   1.000000
   16        6.068198   1.000000
   17        6.106079   1.000000
   18        6.139339   1.000000
   19        9.525480   0.000000
   20       11.612258   0.000000
   21       16.342509   0.000000
   22       16.936121   0.000000
 
  0.3623188E-01  0.0000000E+00  0.0000000E+00  0.2040816E-02
    1      -11.165911   1.000000
    2      -10.523175   1.000000
    3      -10.476127   1.000000
    4      -10.475302   1.000000
    5      -10.391565   1.000000
    6      -10.390635   1.000000
    7      -10.164620   1.000000
    8       -9.816282   1.000000
    9       -9.815270   1.000000
   10       -9.716444   1.000000
   11       -9.713343   1.000000
   12       -6.660879   1.000000
   13       -1.118638   1.000000
   14        5.126006   1.000000
   15        5.203998   1.000000
   16        6.028868   1.000000
   17        6.101540   1.000000
   18        6.136524   1.000000
   19        9.563410   0.000000
   20       11.645799   0.000000
   21       16.322125   0.000000
   22       16.870841   0.000000
 
  0.4347826E-01  0.0000000E+00  0.0000000E+00  0.2040816E-02
    1      -11.165954   1.000000
    2      -10.538350   1.000000
    3      -10.475045   1.000000
    4      -10.474244   1.000000
    5      -10.390751   1.000000
    6      -10.389430   1.000000
    7      -10.141163   1.000000
    8       -9.816901   1.000000
    9       -9.815441   1.000000
   10       -9.717461   1.000000
   11       -9.713029   1.000000
   12       -6.654835   1.000000
   13       -1.109252   1.000000
   14        5.079731   1.000000
   15        5.191049   1.000000
   16        5.981644   1.000000
   17        6.096463   1.000000
   18        6.133040   1.000000
   19        9.608427   0.000000
   20       11.686076   0.000000
   21       16.296989   0.000000
   22       16.800705   0.000000
 
  0.5072464E-01  0.0000000E+00  0.0000000E+00  0.2040816E-02
    1      -11.166014   1.000000
    2      -10.554260   1.000000
    3      -10.473773   1.000000
    4      -10.473009   1.000000
    5      -10.389784   1.000000
    6      -10.388010   1.000000
    7      -10.115473   1.000000
    8       -9.817630   1.000000
    9       -9.815638   1.000000
   10       -9.718640   1.000000
   11       -9.712662   1.000000
   12       -6.647708   1.000000
   13       -1.098173   1.000000
   14        5.025855   1.000000
   15        5.175993   1.000000
   16        5.927395   1.000000
   17        6.090590   1.000000
   18        6.128877   1.000000
   19        9.659877   0.000000
   20       11.732660   0.000000
   21       16.266813   0.000000
   22       16.738346   0.000000
 
  0.5797101E-01  0.0000000E+00  0.0000000E+00  0.2040816E-02
    1      -11.166093   1.000000
    2      -10.570584   1.000000
    3      -10.472314   1.000000
    4      -10.471601   1.000000
    5      -10.388657   1.000000
    6      -10.386379   1.000000
    7      -10.087865   1.000000
    8       -9.818466   1.000000
    9       -9.815856   1.000000
   10       -9.719968   1.000000
   11       -9.712240   1.000000
   12       -6.639508   1.000000
   13       -1.085406   1.000000
   14        4.964774   1.000000
   15        5.158850   1.000000
   16        5.866855   1.000000
   17        6.083866   1.000000
   18        6.124009   1.000000
   19        9.717102   0.000000
   20       11.785108   0.000000
   21       16.231190   0.000000
   22       16.665355   0.000000
 
  0.6521739E-01  0.0000000E+00  0.0000000E+00  0.2040816E-02
    1      -11.166192   1.000000
    2      -10.587115   1.000000
    3      -10.470672   1.000000
    4      -10.470030   1.000000
    5      -10.387365   1.000000
    6      -10.384540   1.000000
    7      -10.058582   1.000000
    8       -9.819407   1.000000
    9       -9.816093   1.000000
   10       -9.721428   1.000000
   11       -9.711768   1.000000
   12       -6.630235   1.000000
   13       -1.070959   1.000000
   14        4.896888   1.000000
   15        5.139717   1.000000
   16        5.800675   1.000000
   17        6.076240   1.000000
   18        6.118420   1.000000
   19        9.779389   0.000000
   20       11.842913   0.000000
   21       16.190228   0.000000
   22       16.590527   0.000000
 
  0.7246377E-01  0.0000000E+00  0.0000000E+00  0.2040816E-02
    1      -11.166331   1.000000
    2      -10.603703   1.000000
    3      -10.468852   1.000000
    4      -10.468302   1.000000
    5      -10.385904   1.000000
    6      -10.382499   1.000000
    7      -10.027800   1.000000
    8       -9.820449   1.000000
    9       -9.816345   1.000000
   10       -9.722995   1.000000
   11       -9.711248   1.000000
   12       -6.619939   1.000000
   13       -1.054842   1.000000
   14        4.822617   1.000000
   15        5.118668   1.000000
   16        5.729469   1.000000
   17        6.067683   1.000000
   18        6.112085   1.000000
   19        9.846087   0.000000
   20       11.905510   0.000000
   21       16.143232   0.000000
   22       16.511637   0.000000
 
  0.7971014E-01  0.0000000E+00  0.0000000E+00  0.2040816E-02
    1      -11.166506   1.000000
    2      -10.620242   1.000000
    3      -10.466860   1.000000
    4      -10.466428   1.000000
    5      -10.384266   1.000000
    6      -10.380261   1.000000
    7       -9.995655   1.000000
    8       -9.821580   1.000000
    9       -9.816610   1.000000
   10       -9.724636   1.000000
   11       -9.710680   1.000000
   12       -6.608616   1.000000
   13       -1.037063   1.000000
   14        4.742410   1.000000
   15        5.095813   1.000000
   16        5.653820   1.000000
   17        6.058184   1.000000
   18        6.104991   1.000000
   19        9.916592   0.000000
   20       11.972335   0.000000
   21       16.089773   0.000000
   22       16.431502   0.000000
 
  0.8695652E-01  0.0000000E+00  0.0000000E+00  0.2040816E-02
    1      -11.166724   1.000000
    2      -10.636657   1.000000
    3      -10.464699   1.000000
    4      -10.464415   1.000000
    5      -10.382446   1.000000
    6      -10.377829   1.000000
    7       -9.962279   1.000000
    8       -9.822778   1.000000
    9       -9.816881   1.000000
   10       -9.726297   1.000000
   11       -9.710067   1.000000
   12       -6.596283   1.000000
   13       -1.017635   1.000000
   14        4.656714   1.000000
   15        5.071254   1.000000
   16        5.574249   1.000000
   17        6.047724   1.000000
   18        6.097127   1.000000
   19        9.990329   0.000000
   20       12.042777   0.000000
   21       16.030060   0.000000
   22       16.351210   0.000000
 
  0.9420290E-01  0.0000000E+00  0.0000000E+00  0.2040816E-02
    1      -11.166990   1.000000
    2      -10.652900   1.000000
    3      -10.462377   1.000000
    4      -10.462274   1.000000
    5      -10.380439   1.000000
    6      -10.375211   1.000000
    7       -9.927854   1.000000
    8       -9.823995   1.000000
    9       -9.817156   1.000000
   10       -9.727894   1.000000
   11       -9.709411   1.000000
   12       -6.582958   1.000000
   13       -0.996570   1.000000
   14        4.565974   1.000000
   15        5.045097   1.000000
   16        5.491225   1.000000
   17        6.036280   1.000000
   18        6.088483   1.000000
   19       10.066767   0.000000
   20       12.116198   0.000000
   21       15.963964   0.000000
   22       16.271398   0.000000
 
  0.1014493E+00  0.0000000E+00  0.0000000E+00  0.2040816E-02
    1      -11.167302   1.000000
    2      -10.668925   1.000000
    3      -10.460013   1.000000
    4      -10.459899   1.000000
    5      -10.378238   1.000000
    6      -10.372410   1.000000
    7       -9.892716   1.000000
    8       -9.825063   1.000000
    9       -9.817431   1.000000
   10       -9.729260   1.000000
   11       -9.708715   1.000000
   12       -6.568638   1.000000
   13       -0.973880   1.000000
   14        4.470643   1.000000
   15        5.017460   1.000000
   16        5.405169   1.000000
   17        6.023860   1.000000
   18        6.079076   1.000000
   19       10.145462   0.000000
   20       12.191959   0.000000
   21       15.891958   0.000000
   22       16.192319   0.000000
 
  0.1086957E+00  0.0000000E+00  0.0000000E+00  0.2040816E-02
    1      -11.167683   1.000000
    2      -10.684733   1.000000
    3      -10.457647   1.000000
    4      -10.457276   1.000000
    5      -10.375841   1.000000
    6      -10.369435   1.000000
    7       -9.858184   1.000000
    8       -9.825079   1.000000
    9       -9.817702   1.000000
   10       -9.730030   1.000000
   11       -9.707980   1.000000
   12       -6.553397   1.000000
   13       -0.949584   1.000000
   14        4.371127   1.000000
   15        4.988426   1.000000
   16        5.316448   1.000000
   17        6.010382   1.000000
   18        6.068863   1.000000
   19       10.225884   0.000000
   20       12.269296   0.000000
   21       15.814583   0.000000
   22       16.114318   0.000000
 
  0.1159420E+00  0.0000000E+00  0.0000000E+00  0.2040816E-02
    1      -11.168131   1.000000
    2      -10.700299   1.000000
    3      -10.455183   1.000000
    4      -10.454510   1.000000
    5      -10.373243   1.000000
    6      -10.366293   1.000000
    7       -9.835522   1.000000
    8       -9.817963   1.000000
    9       -9.813756   1.000000
   10       -9.729214   1.000000
   11       -9.707209   1.000000
   12       -6.537233   1.000000
   13       -0.923697   1.000000
   14        4.267857   1.000000
   15        4.958113   1.000000
   16        5.225396   1.000000
   17        5.995852   1.000000
   18        6.057872   1.000000
   19       10.307666   0.000000
   20       12.347499   0.000000
   21       15.732965   0.000000
   22       16.037324   0.000000
 
  0.1231884E+00  0.0000000E+00  0.0000000E+00  0.2040816E-02
    1      -11.168649   1.000000
    2      -10.715613   1.000000
    3      -10.452632   1.000000
    4      -10.451610   1.000000
    5      -10.370440   1.000000
    6      -10.362990   1.000000
    7       -9.833684   1.000000
    8       -9.818210   1.000000
    9       -9.785355   1.000000
   10       -9.723591   1.000000
   11       -9.706404   1.000000
   12       -6.520173   1.000000
   13       -0.896238   1.000000
   14        4.161236   1.000000
   15        4.926628   1.000000
   16        5.132304   1.000000
   17        5.980243   1.000000
   18        6.046113   1.000000
   19       10.390433   0.000000
   20       12.425787   0.000000
   21       15.648226   0.000000
   22       15.961158   0.000000
 
  0.1304348E+00  0.0000000E+00  0.0000000E+00  0.2040816E-02
    1      -11.169243   1.000000
    2      -10.730671   1.000000
    3      -10.450002   1.000000
    4      -10.448585   1.000000
    5      -10.367432   1.000000
    6      -10.359534   1.000000
    7       -9.834948   1.000000
    8       -9.818438   1.000000
    9       -9.765584   1.000000
   10       -9.705566   1.000000
   11       -9.705176   1.000000
   12       -6.502247   1.000000
   13       -0.867228   1.000000
   14        4.051648   1.000000
   15        4.894076   1.000000
   16        5.037431   1.000000
   17        5.963529   1.000000
   18        6.033600   1.000000
   19       10.473838   0.000000
   20       12.503334   0.000000
   21       15.561414   0.000000
   22       15.885760   0.000000
 
  0.1376812E+00  0.0000000E+00  0.0000000E+00  0.2040816E-02
    1      -11.169918   1.000000
    2      -10.745471   1.000000
    3      -10.447303   1.000000
    4      -10.445442   1.000000
    5      -10.364217   1.000000
    6      -10.355933   1.000000
    7       -9.836782   1.000000
    8       -9.818644   1.000000
    9       -9.758856   1.000000
   10       -9.704698   1.000000
   11       -9.672079   1.000000
   12       -6.483485   1.000000
   13       -0.836692   1.000000
   14        3.939458   1.000000
   15        4.860558   1.000000
   16        4.941011   1.000000
   17        5.945684   1.000000
   18        6.020353   1.000000
   19       10.557558   0.000000
   20       12.579260   0.000000
   21       15.473404   0.000000
   22       15.811352   0.000000
 
  0.1449275E+00  0.0000000E+00  0.0000000E+00  0.2040816E-02
    1      -11.170670   1.000000
    2      -10.760015   1.000000
    3      -10.444542   1.000000
    4      -10.442190   1.000000
    5      -10.360797   1.000000
    6      -10.352192   1.000000
    7       -9.838874   1.000000
    8       -9.818821   1.000000
    9       -9.757898   1.000000
   10       -9.703801   1.000000
   11       -9.631877   1.000000
   12       -6.463901   1.000000
   13       -0.804654   1.000000
   14        3.825016   1.000000
   15        4.826197   1.000000
   16        4.843252   1.000000
   17        5.926686   1.000000
   18        6.006397   1.000000
   19       10.641294   0.000000
   20       12.652644   0.000000
   21       15.384870   0.000000
   22       15.738453   0.000000
 
  0.1521739E+00  0.0000000E+00  0.0000000E+00  0.2040816E-02
    1      -11.171517   1.000000
    2      -10.774283   1.000000
    3      -10.441729   1.000000
    4      -10.438838   1.000000
    5      -10.357173   1.000000
    6      -10.348323   1.000000
    7       -9.841141   1.000000
    8       -9.818966   1.000000
    9       -9.758945   1.000000
   10       -9.702877   1.000000
   11       -9.588407   1.000000
   12       -6.443573   1.000000
   13       -0.771144   1.000000
   14        3.708657   1.000000
   15        4.744349   1.000000
   16        4.791050   1.000000
   17        5.906492   1.000000
   18        5.991758   1.000000
   19       10.724878   0.000000
   20       12.722491   0.000000
   21       15.296069   0.000000
   22       15.667878   0.000000
 
  0.1594203E+00  0.0000000E+00  0.0000000E+00  0.2040816E-02
    1      -11.172455   1.000000
    2      -10.788319   1.000000
    3      -10.438871   1.000000
    4      -10.435397   1.000000
    5      -10.353352   1.000000
    6      -10.344334   1.000000
    7       -9.843552   1.000000
    8       -9.819076   1.000000
    9       -9.760829   1.000000
   10       -9.701929   1.000000
   11       -9.542876   1.000000
   12       -6.422526   1.000000
   13       -0.736192   1.000000
   14        3.590684   1.000000
   15        4.644441   1.000000
   16        4.755235   1.000000
   17        5.885079   1.000000
   18        5.976463   1.000000
   19       10.807771   0.000000
   20       12.787795   0.000000
   21       15.207075   0.000000
   22       15.600794   0.000000
 
  0.1666667E+00  0.0000000E+00  0.0000000E+00  0.2040816E-02
    1      -11.173484   1.000000
    2      -10.802105   1.000000
    3      -10.435973   1.000000
    4      -10.431874   1.000000
    5      -10.349338   1.000000
    6      -10.340234   1.000000
    7       -9.846090   1.000000
    8       -9.819147   1.000000
    9       -9.763130   1.000000
   10       -9.700958   1.000000
   11       -9.495697   1.000000
   12       -6.400790   1.000000
   13       -0.699832   1.000000
   14        3.471406   1.000000
   15        4.543719   1.000000
   16        4.718847   1.000000
   17        5.862419   1.000000
   18        5.960551   1.000000
   19       10.889841   0.000000
   20       12.847539   0.000000
   21       15.117762   0.000000
   22       15.538604   0.000000
 
  0.1739130E+00  0.0000000E+00  0.0000000E+00  0.2040816E-02
    1      -11.174605   1.000000
    2      -10.815644   1.000000
    3      -10.433042   1.000000
    4      -10.428281   1.000000
    5      -10.345137   1.000000
    6      -10.336032   1.000000
    7       -9.848746   1.000000
    8       -9.819174   1.000000
    9       -9.765662   1.000000
   10       -9.699966   1.000000
   11       -9.447061   1.000000
   12       -6.378415   1.000000
   13       -0.662103   1.000000
   14        3.351108   1.000000
   15        4.442316   1.000000
   16        4.681976   1.000000
   17        5.838483   1.000000
   18        5.944059   1.000000
   19       10.970817   0.000000
   20       12.900734   0.000000
   21       15.027812   0.000000
   22       15.482827   0.000000
 
  0.1811594E+00  0.0000000E+00  0.0000000E+00  0.2040816E-02
    1      -11.175819   1.000000
    2      -10.828938   1.000000
    3      -10.430082   1.000000
    4      -10.424625   1.000000
    5      -10.340758   1.000000
    6      -10.331737   1.000000
    7       -9.851510   1.000000
    8       -9.819155   1.000000
    9       -9.768331   1.000000
   10       -9.698955   1.000000
   11       -9.397065   1.000000
   12       -6.355451   1.000000
   13       -0.623049   1.000000
   14        3.230061   1.000000
   15        4.340366   1.000000
   16        4.644712   1.000000
   17        5.813242   1.000000
   18        5.927028   1.000000
   19       11.050428   0.000000
   20       12.946483   0.000000
   21       14.936851   0.000000
   22       15.434958   0.000000
 
  0.1884058E+00  0.0000000E+00  0.0000000E+00  0.2040816E-02
    1      -11.177125   1.000000
    2      -10.841991   1.000000
    3      -10.427099   1.000000
    4      -10.420917   1.000000
    5      -10.336213   1.000000
    6      -10.327358   1.000000
    7       -9.854378   1.000000
    8       -9.819085   1.000000
    9       -9.771082   1.000000
   10       -9.697927   1.000000
   11       -9.345785   1.000000
   12       -6.331955   1.000000
   13       -0.582718   1.000000
   14        3.108515   1.000000
   15        4.237983   1.000000
   16        4.607142   1.000000
   17        5.786666   1.000000
   18        5.909500   1.000000
   19       11.128389   0.000000
   20       12.984048   0.000000
   21       14.844566   0.000000
   22       15.396236   0.000000
 
  0.1956522E+00  0.0000000E+00  0.0000000E+00  0.2040816E-02
    1      -11.178511   1.000000
    2      -10.854805   1.000000
    3      -10.424097   1.000000
    4      -10.417168   1.000000
    5      -10.331511   1.000000
    6      -10.322905   1.000000
    7       -9.857342   1.000000
    8       -9.818962   1.000000
    9       -9.773876   1.000000
   10       -9.696882   1.000000
   11       -9.293227   1.000000
   12       -6.307937   1.000000
   13       -0.541164   1.000000
   14        2.986769   1.000000
   15        4.135308   1.000000
   16        4.569364   1.000000
   17        5.758731   1.000000
   18        5.891521   1.000000
   19       11.204428   0.000000
   20       13.012959   0.000000
   21       14.750895   0.000000
   22       15.367550   0.000000
 
  0.2028986E+00  0.0000000E+00  0.0000000E+00  0.2040816E-02
    1      -11.179995   1.000000
    2      -10.867382   1.000000
    3      -10.421079   1.000000
    4      -10.413385   1.000000
    5      -10.326665   1.000000
    6      -10.318391   1.000000
    7       -9.860394   1.000000
    8       -9.818783   1.000000
    9       -9.776690   1.000000
   10       -9.695823   1.000000
   11       -9.239439   1.000000
   12       -6.283530   1.000000
   13       -0.498450   1.000000
   14        2.865058   1.000000
   15        4.032442   1.000000
   16        4.531430   1.000000
   17        5.729408   1.000000
   18        5.873136   1.000000
   19       11.278236   0.000000
   20       13.033003   0.000000
   21       14.655643   0.000000
   22       15.349194   0.000000
 
  0.2101449E+00  0.0000000E+00  0.0000000E+00  0.2040816E-02
    1      -11.181564   1.000000
    2      -10.879712   1.000000
    3      -10.418049   1.000000
    4      -10.409578   1.000000
    5      -10.321688   1.000000
    6      -10.313824   1.000000
    7       -9.863528   1.000000
    8       -9.818544   1.000000
    9       -9.779505   1.000000
   10       -9.694751   1.000000
   11       -9.184439   1.000000
   12       -6.258764   1.000000
   13       -0.454647   1.000000
   14        2.743635   1.000000
   15        3.929504   1.000000
   16        4.493435   1.000000
   17        5.698715   1.000000
   18        5.854407   1.000000
   19       11.349571   0.000000
   20       13.044363   0.000000
   21       14.559116   0.000000
   22       15.341025   0.000000
 
  0.2173913E+00  0.0000000E+00  0.0000000E+00  0.2040816E-02
    1      -11.183213   1.000000
    2      -10.891828   1.000000
    3      -10.415013   1.000000
    4      -10.405758   1.000000
    5      -10.316593   1.000000
    6      -10.309213   1.000000
    7       -9.866737   1.000000
    8       -9.818245   1.000000
    9       -9.782308   1.000000
   10       -9.693667   1.000000
   11       -9.128276   1.000000
   12       -6.233708   1.000000
   13       -0.409838   1.000000
   14        2.622754   1.000000
   15        3.826587   1.000000
   16        4.455455   1.000000
   17        5.666545   1.000000
   18        5.835350   1.000000
   19       11.417919   0.000000
   20       13.047554   0.000000
   21       14.461600   0.000000
   22       15.342389   0.000000
 
  0.2246377E+00  0.0000000E+00  0.0000000E+00  0.2040816E-02
    1      -11.184938   1.000000
    2      -10.903693   1.000000
    3      -10.411973   1.000000
    4      -10.401932   1.000000
    5      -10.311394   1.000000
    6      -10.304569   1.000000
    7       -9.870013   1.000000
    8       -9.817884   1.000000
    9       -9.785086   1.000000
   10       -9.692572   1.000000
   11       -9.070951   1.000000
   12       -6.208434   1.000000
   13       -0.364119   1.000000
   14        2.502674   1.000000
   15        3.723804   1.000000
   16        4.417568   1.000000
   17        5.632923   1.000000
   18        5.816060   1.000000
   19       11.483086   0.000000
   20       13.043425   0.000000
   21       14.363504   0.000000
   22       15.352264   0.000000
 
  0.2318841E+00  0.0000000E+00  0.0000000E+00  0.2040816E-02
    1      -11.186734   1.000000
    2      -10.915347   1.000000
    3      -10.408933   1.000000
    4      -10.398116   1.000000
    5      -10.306108   1.000000
    6      -10.299903   1.000000
    7       -9.873348   1.000000
    8       -9.817459   1.000000
    9       -9.787832   1.000000
   10       -9.691470   1.000000
   11       -9.012513   1.000000
   12       -6.183020   1.000000
   13       -0.317601   1.000000
   14        2.383663   1.000000
   15        3.621258   1.000000
   16        4.379836   1.000000
   17        5.597828   1.000000
   18        5.796529   1.000000
   19       11.544469   0.000000
   20       13.033001   0.000000
   21       14.265258   0.000000
   22       15.369362   0.000000
 
  0.2391304E+00  0.0000000E+00  0.0000000E+00  0.2040816E-02
    1      -11.188590   1.000000
    2      -10.926758   1.000000
    3      -10.405898   1.000000
    4      -10.394316   1.000000
    5      -10.300747   1.000000
    6      -10.295225   1.000000
    7       -9.876733   1.000000
    8       -9.816971   1.000000
    9       -9.790539   1.000000
   10       -9.690362   1.000000
   11       -8.953010   1.000000
   12       -6.157543   1.000000
   13       -0.270419   1.000000
   14        2.265993   1.000000
   15        3.519019   1.000000
   16        4.342334   1.000000
   17        5.561245   1.000000
   18        5.776850   1.000000
   19       11.601762   0.000000
   20       13.017533   0.000000
   21       14.167324   0.000000
   22       15.392361   0.000000
 
  0.2463768E+00  0.0000000E+00  0.0000000E+00  0.2040816E-02
    1      -11.190495   1.000000
    2      -10.937952   1.000000
    3      -10.402871   1.000000
    4      -10.390542   1.000000
    5      -10.295327   1.000000
    6      -10.290545   1.000000
    7       -9.880159   1.000000
    8       -9.816419   1.000000
    9       -9.793199   1.000000
   10       -9.689248   1.000000
   11       -8.892412   1.000000
   12       -6.132081   1.000000
   13       -0.222733   1.000000
   14        2.149988   1.000000
   15        3.417263   1.000000
   16        4.305127   1.000000
   17        5.523172   1.000000
   18        5.757043   1.000000
   19       11.654429   0.000000
   20       12.998283   0.000000
   21       14.070184   0.000000
   22       15.419796   0.000000
 
  0.2536232E+00  0.0000000E+00  0.0000000E+00  0.2040816E-02
    1      -11.192462   1.000000
    2      -10.948915   1.000000
    3      -10.399855   1.000000
    4      -10.386803   1.000000
    5      -10.289866   1.000000
    6      -10.285874   1.000000
    7       -9.883618   1.000000
    8       -9.815803   1.000000
    9       -9.795808   1.000000
   10       -9.688131   1.000000
   11       -8.830782   1.000000
   12       -6.106767   1.000000
   13       -0.174740   1.000000
   14        2.035947   1.000000
   15        3.316058   1.000000
   16        4.268278   1.000000
   17        5.483596   1.000000
   18        5.737174   1.000000
   19       11.701997   0.000000
   20       12.976455   0.000000
   21       13.974292   0.000000
   22       15.450040   0.000000
 
  0.2608696E+00  0.0000000E+00  0.0000000E+00  0.2040816E-02
    1      -11.194471   1.000000
    2      -10.959646   1.000000
    3      -10.396857   1.000000
    4      -10.383107   1.000000
    5      -10.284377   1.000000
    6      -10.281219   1.000000
    7       -9.887099   1.000000
    8       -9.815124   1.000000
    9       -9.798363   1.000000
   10       -9.687013   1.000000
   11       -8.768157   1.000000
   12       -6.081677   1.000000
   13       -0.126681   1.000000
   14        1.924251   1.000000
   15        3.215517   1.000000
   16        4.231851   1.000000
   17        5.442519   1.000000
   18        5.717293   1.000000
   19       11.743974   0.000000
   20       12.953236   0.000000
   21       13.880165   0.000000
   22       15.482081   0.000000
 
  0.2681159E+00  0.0000000E+00  0.0000000E+00  0.2040816E-02
    1      -11.196511   1.000000
    2      -10.970135   1.000000
    3      -10.393881   1.000000
    4      -10.379462   1.000000
    5      -10.278878   1.000000
    6      -10.276591   1.000000
    7       -9.890591   1.000000
    8       -9.814383   1.000000
    9       -9.800861   1.000000
   10       -9.685893   1.000000
   11       -8.704576   1.000000
   12       -6.056915   1.000000
   13       -0.078857   1.000000
   14        1.815323   1.000000
   15        3.115755   1.000000
   16        4.195905   1.000000