 vasp.5.4.4.18Apr17-6-g9f103f2a35 (build Jun 24 2018 22:36:06) complex          
  
 executed on             LinuxIFC date 2020.08.12  14:33:18
 running on    8 total cores
 distrk:  each k-point on    8 cores,    1 groups
 distr:  one band on NCORES_PER_BAND=   4 cores,    2 groups


--------------------------------------------------------------------------------------------------------


 INCAR:
 POTCAR:    PAW_PBE Ga_d 06Jul2010                
 POTCAR:    PAW_PBE N 08Apr2002                   
 POTCAR:    PAW_PBE Ga_d 06Jul2010                
   VRHFIN =Ga: s2p1                                                             
   LEXCH  = PE                                                                  
   EATOM  =  2148.8298 eV,  157.9345 Ry                                         
                                                                                
   TITEL  = PAW_PBE Ga_d 06Jul2010                                              
   LULTRA =        F    use ultrasoft PP ?                                      
   IUNSCR =        1    unscreen: 0-lin 1-nonlin 2-no                           
   RPACOR =    1.700    partial core radius                                     
   POMASS =   69.723; ZVAL   =   13.000    mass and valenz                      
   RCORE  =    2.300    outmost cutoff radius                                   
   RWIGS  =    2.300; RWIGS  =    1.217    wigner-seitz radius (au A)           
   ENMAX  =  282.691; ENMIN  =  212.018 eV                                      
   ICORE  =        3    local potential                                         
   LCOR   =        T    correct aug charges                                     
   LPAW   =        T    paw PP                                                  
   EAUG   =  490.690                                                            
   DEXC   =    0.000                                                            
   RMAX   =    2.341    core radius for proj-oper                               
   RAUG   =    1.300    factor for augmentation sphere                          
   RDEP   =    2.413    radius for radial grids                                 
   RDEPT  =    1.856    core radius for aug-charge                              
                                                                                
   Atomic configuration                                                         
    9 entries                                                                   
     n  l   j            E        occ.                                          
     1  0  0.50    -10228.7831   2.0000                                         
     2  0  0.50     -1262.1604   2.0000                                         
     2  1  1.50     -1098.6333   6.0000                                         
     3  0  0.50      -148.1110   2.0000                                         
     3  1  1.50       -98.8436   6.0000                                         
     3  2  2.50       -19.1549  10.0000                                         
     4  0  0.50        -8.9483   2.0000                                         
     4  1  0.50        -2.5791   1.0000                                         
     4  3  2.50        -2.7416   0.0000                                         
   Description                                                                  
     l       E           TYP  RCUT    TYP  RCUT                                 
     2    -19.1549037     23  2.300                                             
     2     -5.4423304     23  2.300                                             
     0     -8.9483111     23  2.300                                             
     0     68.0291300     23  2.300                                             
     1     -2.5790802     23  2.100                                             
     1     81.6349560     23  2.300                                             
     3      6.8029130     23  2.300                                             
  local pseudopotential read in
  partial core-charges read in
  partial kinetic energy density read in
  atomic valenz-charges read in
  non local Contribution for L=           2  read in
    real space projection operators read in
  non local Contribution for L=           2  read in
    real space projection operators read in
  non local Contribution for L=           0  read in
    real space projection operators read in
  non local Contribution for L=           0  read in
    real space projection operators read in
  non local Contribution for L=           1  read in
    real space projection operators read in
  non local Contribution for L=           1  read in
    real space projection operators read in
    PAW grid and wavefunctions read in
 
   number of l-projection  operators is LMAX  =           6
   number of lm-projection operators is LMMAX =          18
 
 POTCAR:    PAW_PBE N 08Apr2002                   
   VRHFIN =N: s2p3                                                              
   LEXCH  = PE                                                                  
   EATOM  =   264.5486 eV,   19.4438 Ry                                         
                                                                                
   TITEL  = PAW_PBE N 08Apr2002                                                 
   LULTRA =        F    use ultrasoft PP ?                                      
   IUNSCR =        1    unscreen: 0-lin 1-nonlin 2-no                           
   RPACOR =    1.200    partial core radius                                     
   POMASS =   14.001; ZVAL   =    5.000    mass and valenz                      
   RCORE  =    1.500    outmost cutoff radius                                   
   RWIGS  =    1.400; RWIGS  =    0.741    wigner-seitz radius (au A)           
   ENMAX  =  400.000; ENMIN  =  300.000 eV                                      
   ICORE  =        2    local potential                                         
   LCOR   =        T    correct aug charges                                     
   LPAW   =        T    paw PP                                                  
   EAUG   =  627.112                                                            
   DEXC   =    0.000                                                            
   RMAX   =    1.529    core radius for proj-oper                               
   RAUG   =    1.300    factor for augmentation sphere                          
   RDEP   =    1.514    radius for radial grids                                 
   RDEPT  =    1.338    core radius for aug-charge                              
                                                                                
   Atomic configuration                                                         
    4 entries                                                                   
     n  l   j            E        occ.                                          
     1  0  0.50      -384.7179   2.0000                                         
     2  0  0.50       -18.5828   2.0000                                         
     2  1  0.50        -7.0898   3.0000                                         
     3  2  1.50        -6.8029   0.0000                                         
   Description                                                                  
     l       E           TYP  RCUT    TYP  RCUT                                 
     0    -18.5828119     23  1.200                                             
     0    -13.5018863     23  1.200                                             
     1     -7.0897853     23  1.500                                             
     1      9.5240782     23  1.500                                             
     2     -6.8029130      7  1.500                                             
  local pseudopotential read in
  partial core-charges read in
  partial kinetic energy density read in
  atomic valenz-charges read in
  non local Contribution for L=           0  read in
    real space projection operators read in
  non local Contribution for L=           0  read in
    real space projection operators read in
  non local Contribution for L=           1  read in
    real space projection operators read in
  non local Contribution for L=           1  read in
    real space projection operators read in
    PAW grid and wavefunctions read in
 
   number of l-projection  operators is LMAX  =           4
   number of lm-projection operators is LMMAX =           8
 
  PAW_PBE Ga_d 06Jul2010                :
 energy of atom  1       EATOM=-2148.8298
 kinetic energy error for atom=    0.0026 (will be added to EATOM!!)
  PAW_PBE N 08Apr2002                   :
 energy of atom  2       EATOM= -264.5486
 kinetic energy error for atom=    0.0138 (will be added to EATOM!!)
 
 
 POSCAR: /net/hulk/PMD/skwon/GaN/Wurtzite/vasp/U_
  positions in direct lattice
  velocities in cartesian coordinates
 exchange correlation table for  LEXCH =        8
   RHO(1)=    0.500       N(1)  =     2000
   RHO(2)=  100.500       N(2)  =     4000
 


--------------------------------------------------------------------------------------------------------


 ion  position               nearest neighbor table
   1  0.667  0.333  0.499-   4 1.88   4 1.88   4 1.88   3 1.88
   2  0.333  0.667  0.999-   3 1.88   3 1.88   3 1.88   4 1.88
   3  0.667  0.333  0.876-   2 1.88   2 1.88   2 1.88   1 1.88
   4  0.333  0.667  0.376-   1 1.88   1 1.88   1 1.88   2 1.88
 
  LATTYP: Found a hexagonal cell.
 ALAT       =     3.0698673668
 C/A-ratio  =     1.6269019694
  
  Lattice vectors:
  
 A1 = (   3.0698673668,   0.0000000000,   0.0000000000)
 A2 = (  -1.5349336834,   2.6585831259,   0.0000000000)
 A3 = (   0.0000000000,   0.0000000000,   4.9943732649)


Analysis of symmetry for initial positions (statically):
=====================================================================
 Subroutine PRICEL returns:
 Original cell was already a primitive cell.
 

 Routine SETGRP: Setting up the symmetry group for a 
 hexagonal supercell.


 Subroutine GETGRP returns: Found 12 space group operations
 (whereof  6 operations were pure point group operations)
 out of a pool of 24 trial point group operations.


The static configuration has the point symmetry C_3v.
 The point group associated with its full space group is C_6v.


Analysis of symmetry for dynamics (positions and initial velocities):
=====================================================================
 Subroutine PRICEL returns:
 Original cell was already a primitive cell.
 

 Routine SETGRP: Setting up the symmetry group for a 
 hexagonal supercell.


 Subroutine GETGRP returns: Found 12 space group operations
 (whereof  6 operations were pure point group operations)
 out of a pool of 24 trial point group operations.


The dynamic configuration has the point symmetry C_3v.
 The point group associated with its full space group is C_6v.


 Subroutine INISYM returns: Found 12 space group operations
 (whereof  6 operations are pure point group operations),
 and found     1 'primitive' translations

 
 
 KPOINTS: k-points for bandstructure G-M-K-G-A-L-H
  interpolating k-points between supplied coordinates
  k-points in reciprocal lattice
Space group operators:
 irot       det(A)        alpha          n_x          n_y          n_z        tau_x        tau_y        tau_z
    1     1.000000     0.000000     1.000000     0.000000     0.000000     0.000000     0.000000     0.000000
    2     1.000000   120.000000     0.000000     0.000000    -1.000000     0.000000     0.000000     0.000000
    3     1.000000   120.000000     0.000000     0.000000     1.000000     0.000000     0.000000     0.000000
    4    -1.000000   180.000000     1.000000     0.000000     0.000000     0.000000     0.000000     0.000000
    5    -1.000000   180.000000     0.500000    -0.866025     0.000000     0.000000     0.000000     0.000000
    6    -1.000000   180.000000    -0.500000    -0.866025     0.000000     0.000000     0.000000     0.000000
    7     1.000000    60.000000     0.000000     0.000000    -1.000000     0.000001     0.000000     0.500000
    8     1.000000   180.000000     0.000000     0.000000     1.000000     0.000000     0.000000     0.500000
    9     1.000000    60.000000     0.000000     0.000000     1.000000     0.000000     0.000000     0.500000
   10    -1.000000   180.000000     0.866025    -0.500000     0.000000     0.000000     0.000000     0.500000
   11    -1.000000   180.000000     0.000000     1.000000     0.000000     0.000001     0.000000     0.500000
   12    -1.000000   180.000000     0.866025     0.500000     0.000000     0.000000     0.000000     0.500000


--------------------------------------------------------------------------------------------------------




 Dimension of arrays:
   k-points           NKPTS =    490   k-points in BZ     NKDIM =    490   number of bands    NBANDS=     22
   number of dos      NEDOS =    301   number of ions     NIONS =      4
   non local maximal  LDIM  =      6   non local SUM 2l+1 LMDIM =     18
   total plane-waves  NPLWV =  20736
   max r-space proj   IRMAX =      1   max aug-charges    IRDMAX=  19476
   dimension x,y,z NGX =    24 NGY =   24 NGZ =   36
   dimension x,y,z NGXF=    48 NGYF=   48 NGZF=   72
   support grid    NGXF=    48 NGYF=   48 NGZF=   72
   ions per type =               2   2
   NGX,Y,Z   is equivalent  to a cutoff of  13.00, 13.00, 11.98 a.u.
   NGXF,Y,Z  is equivalent  to a cutoff of  25.99, 25.99, 23.97 a.u.

 SYSTEM =  /net/hulk/PMD/skwon/GaN/Wurtzite/vasp/U 
 POSCAR =  /net/hulk/PMD/skwon/GaN/Wurtzite/vasp/U_

 Startparameter for this run:
   NWRITE =      2    write-flag & timer
   PREC   = accura    normal or accurate (medium, high low for compatibility)
   ISTART =      0    job   : 0-new  1-cont  2-samecut
   ICHARG =     11    charge: 1-file 2-atom 10-const
   ISPIN  =      1    spin polarized calculation?
   LNONCOLLINEAR =      F non collinear calculations
   LSORBIT =      F    spin-orbit coupling
   INIWAV =      1    electr: 0-lowe 1-rand  2-diag
   LASPH  =      F    aspherical Exc in radial PAW
   METAGGA=      F    non-selfconsistent MetaGGA calc.

 Electronic Relaxation 1
   ENCUT  =  500.0 eV  36.75 Ry    6.06 a.u.   5.60  5.60  9.11*2*pi/ulx,y,z
   ENINI  =  500.0     initial cutoff
   ENAUG  =  627.1 eV  augmentation charge cutoff
   NELM   =    200;   NELMIN=  2; NELMDL=  0     # of ELM steps 
   EDIFF  = 0.1E-06   stopping-criterion for ELM
   LREAL  =      F    real-space projection
   NLSPLINE    = F    spline interpolate recip. space projectors
   LCOMPAT=      F    compatible to vasp.4.4
   GGA_COMPAT  = T    GGA compatible to vasp.4.4-vasp.4.6
   LMAXPAW     = -100 max onsite density
   LMAXMIX     =    4 max onsite mixed and CHGCAR
   VOSKOWN=      0    Vosko Wilk Nusair interpolation
   ROPT   =    0.00000   0.00000
 Ionic relaxation
   EDIFFG = 0.1E-02   stopping-criterion for IOM
   NSW    =      0    number of steps for IOM
   NBLOCK =      1;   KBLOCK =      1    inner block; outer block 
   IBRION =     -1    ionic relax: 0-MD 1-quasi-New 2-CG
   NFREE  =      1    steps in history (QN), initial steepest desc. (CG)
   ISIF   =      3    stress and relaxation
   IWAVPR =     10    prediction:  0-non 1-charg 2-wave 3-comb
   ISYM   =      2    0-nonsym 1-usesym 2-fastsym
   LCORR  =      T    Harris-Foulkes like correction to forces

   POTIM  = 0.5000    time-step for ionic-motion
   TEIN   =    0.0    initial temperature
   TEBEG  =    0.0;   TEEND  =   0.0 temperature during run
   SMASS  =  -3.00    Nose mass-parameter (am)
   estimated Nose-frequenzy (Omega)   =  0.10E-29 period in steps =****** mass=  -0.215E-27a.u.
   SCALEE = 1.0000    scale energy and forces
   NPACO  =    256;   APACO  = 16.0  distance and # of slots for P.C.
   PSTRESS=    0.0 pullay stress

  Mass of Ions in am
   POMASS =  69.72 14.00
  Ionic Valenz
   ZVAL   =  13.00  5.00
  Atomic Wigner-Seitz radii
   RWIGS  =  -1.00 -1.00
  virtual crystal weights 
   VCA    =   1.00  1.00
   NELECT =      36.0000    total number of electrons
   NUPDOWN=      -1.0000    fix difference up-down

 DOS related values:
   EMIN   =  10.00;   EMAX   =-10.00  energy-range for DOS
   EFERMI =   0.00
   ISMEAR =     0;   SIGMA  =   0.03  broadening in eV -4-tet -1-fermi 0-gaus

 Electronic relaxation 2 (details)
   IALGO  =     68    algorithm
   LDIAG  =      T    sub-space diagonalisation (order eigenvalues)
   LSUBROT=      F    optimize rotation matrix (better conditioning)
   TURBO    =      0    0=normal 1=particle mesh
   IRESTART =      0    0=no restart 2=restart with 2 vectors
   NREBOOT  =      0    no. of reboots
   NMIN     =      0    reboot dimension
   EREF     =   0.00    reference energy to select bands
   IMIX   =      4    mixing-type and parameters
     AMIX     =   0.40;   BMIX     =  1.00
     AMIX_MAG =   1.60;   BMIX_MAG =  1.00
     AMIN     =   0.10
     WC   =   100.;   INIMIX=   1;  MIXPRE=   1;  MAXMIX= -45

 Intra band minimization:
   WEIMIN = 0.0000     energy-eigenvalue tresh-hold
   EBREAK =  0.11E-08  absolut break condition
   DEPER  =   0.30     relativ break condition  

   TIME   =   0.40     timestep for ELM

  volume/ion in A,a.u.               =      10.19        68.77
  Fermi-wavevector in a.u.,A,eV,Ry     =   1.570696  2.968184 33.566728  2.467085
  Thomas-Fermi vector in A             =   2.672390
 
 Write flags
   LWAVE        =      F    write WAVECAR
   LDOWNSAMPLE  =      F    k-point downsampling of WAVECAR
   LCHARG       =      F    write CHGCAR
   LVTOT        =      F    write LOCPOT, total local potential
   LVHAR        =      F    write LOCPOT, Hartree potential only
   LELF         =      F    write electronic localiz. function (ELF)
   LORBIT       =     11    0 simple, 1 ext, 2 COOP (PROOUT), +10 PAW based schemes


 Dipole corrections
   LMONO  =      F    monopole corrections only (constant potential shift)
   LDIPOL =      F    correct potential (dipole corrections)
   IDIPOL =      0    1-x, 2-y, 3-z, 4-all directions 
   EPSILON=  1.0000000 bulk dielectric constant

 LDA+U is selected, type is set to LDAUTYPE =  2
   angular momentum for each species LDAUL =     2   -1
   U (eV)           for each species LDAUU =   6.7  0.0
   J (eV)           for each species LDAUJ =   0.0  0.0
 Exchange correlation treatment:
   GGA     =    PE    GGA type
   LEXCH   =     8    internal setting for exchange type
   VOSKOWN=      0    Vosko Wilk Nusair interpolation
   LHFCALC =     F    Hartree Fock is set to
   LHFONE  =     F    Hartree Fock one center treatment
   AEXX    =    0.0000 exact exchange contribution

 Linear response parameters
   LEPSILON=     F    determine dielectric tensor
   LRPA    =     F    only Hartree local field effects (RPA)
   LNABLA  =     F    use nabla operator in PAW spheres
   LVEL    =     F    velocity operator in full k-point grid
   LINTERFAST=   F  fast interpolation
   KINTER  =     0    interpolate to denser k-point grid
   CSHIFT  =0.1000    complex shift for real part using Kramers Kronig
   OMEGAMAX=  -1.0    maximum frequency
   DEG_THRESHOLD= 0.2000000E-02 threshold for treating states as degnerate
   RTIME   =   -0.100 relaxation time in fs
  (WPLASMAI=    0.000 imaginary part of plasma frequency in eV, 0.658/RTIME)
   DFIELD  = 0.0000000 0.0000000 0.0000000 field for delta impulse in time
 
 Orbital magnetization related:
   ORBITALMAG=     F  switch on orbital magnetization
   LCHIMAG   =     F  perturbation theory with respect to B field
   DQ        =  0.001000  dq finite difference perturbation B field
   LLRAUG    =     F  two centre corrections for induced B field



--------------------------------------------------------------------------------------------------------


 Static calculation
 charge density and potential remain constant during run
 non-spin polarized calculation
 RMM-DIIS sequential band-by-band and
  variant of blocked Davidson during initial phase
 perform sub-space diagonalisation
    before iterative eigenvector-optimisation
 no mixing
 using additional bands            4
 reciprocal scheme for non local part
 use partial core corrections
 calculate Harris-corrections to forces 
   (improved forces if not selfconsistent)
 use gradient corrections 
 WARNING: stress and forces are not correct
  (second derivative of E(xc) not defined)
 use of overlap-Matrix (Vanderbilt PP)
 Gauss-broadening in eV      SIGMA  =   0.03


--------------------------------------------------------------------------------------------------------


  energy-cutoff  :      500.00
  volume of cell :       40.76
      direct lattice vectors                 reciprocal lattice vectors
     3.069867367  0.000000000  0.000000000     0.325746972  0.188070102  0.000000000
    -1.534933683  2.658583126  0.000000000     0.000000000  0.376140204  0.000000000
     0.000000000  0.000000000  4.994373265     0.000000000  0.000000000  0.200225323

  length of vectors
     3.069867367  3.069867367  4.994373265     0.376140204  0.376140204  0.200225323


 
 k-points in units of 2pi/SCALE and weight: k-points for bandstructure G-M-K-G-A-L-H
   0.00000000  0.00000000  0.00000000       0.002
   0.00236049  0.00136283  0.00000000       0.002
   0.00472097  0.00272565  0.00000000       0.002
   0.00708146  0.00408848  0.00000000       0.002
   0.00944194  0.00545131  0.00000000       0.002
   0.01180243  0.00681413  0.00000000       0.002
   0.01416291  0.00817696  0.00000000       0.002
   0.01652340  0.00953979  0.00000000       0.002
   0.01888388  0.01090261  0.00000000       0.002
   0.02124437  0.01226544  0.00000000       0.002
   0.02360485  0.01362827  0.00000000       0.002
   0.02596534  0.01499110  0.00000000       0.002
   0.02832582  0.01635392  0.00000000       0.002
   0.03068631  0.01771675  0.00000000       0.002
   0.03304679  0.01907958  0.00000000       0.002
   0.03540728  0.02044240  0.00000000       0.002
   0.03776776  0.02180523  0.00000000       0.002
   0.04012825  0.02316806  0.00000000       0.002
   0.04248874  0.02453088  0.00000000       0.002
   0.04484922  0.02589371  0.00000000       0.002
   0.04720971  0.02725654  0.00000000       0.002
   0.04957019  0.02861936  0.00000000       0.002
   0.05193068  0.02998219  0.00000000       0.002
   0.05429116  0.03134502  0.00000000       0.002
   0.05665165  0.03270784  0.00000000       0.002
   0.05901213  0.03407067  0.00000000       0.002
   0.06137262  0.03543350  0.00000000       0.002
   0.06373310  0.03679632  0.00000000       0.002
   0.06609359  0.03815915  0.00000000       0.002
   0.06845407  0.03952198  0.00000000       0.002
   0.07081456  0.04088480  0.00000000       0.002
   0.07317504  0.04224763  0.00000000       0.002
   0.07553553  0.04361046  0.00000000       0.002
   0.07789602  0.04497329  0.00000000       0.002
   0.08025650  0.04633611  0.00000000       0.002
   0.08261699  0.04769894  0.00000000       0.002
   0.08497747  0.04906177  0.00000000       0.002
   0.08733796  0.05042459  0.00000000       0.002
   0.08969844  0.05178742  0.00000000       0.002
   0.09205893  0.05315025  0.00000000       0.002
   0.09441941  0.05451307  0.00000000       0.002
   0.09677990  0.05587590  0.00000000       0.002
   0.09914038  0.05723873  0.00000000       0.002
   0.10150087  0.05860155  0.00000000       0.002
   0.10386135  0.05996438  0.00000000       0.002
   0.10622184  0.06132721  0.00000000       0.002
   0.10858232  0.06269003  0.00000000       0.002
   0.11094281  0.06405286  0.00000000       0.002
   0.11330329  0.06541569  0.00000000       0.002
   0.11566378  0.06677851  0.00000000       0.002
   0.11802427  0.06814134  0.00000000       0.002
   0.12038475  0.06950417  0.00000000       0.002
   0.12274524  0.07086700  0.00000000       0.002
   0.12510572  0.07222982  0.00000000       0.002
   0.12746621  0.07359265  0.00000000       0.002
   0.12982669  0.07495548  0.00000000       0.002
   0.13218718  0.07631830  0.00000000       0.002
   0.13454766  0.07768113  0.00000000       0.002
   0.13690815  0.07904396  0.00000000       0.002
   0.13926863  0.08040678  0.00000000       0.002
   0.14162912  0.08176961  0.00000000       0.002
   0.14398960  0.08313244  0.00000000       0.002
   0.14635009  0.08449526  0.00000000       0.002
   0.14871057  0.08585809  0.00000000       0.002
   0.15107106  0.08722092  0.00000000       0.002
   0.15343154  0.08858374  0.00000000       0.002
   0.15579203  0.08994657  0.00000000       0.002
   0.15815252  0.09130940  0.00000000       0.002
   0.16051300  0.09267222  0.00000000       0.002
   0.16287349  0.09403505  0.00000000       0.002
   0.16287349  0.09403505  0.00000000       0.002
   0.16208664  0.09539785  0.00000000       0.002
   0.16129980  0.09676065  0.00000000       0.002
   0.16051295  0.09812345  0.00000000       0.002
   0.15972611  0.09948625  0.00000000       0.002
   0.15893927  0.10084905  0.00000000       0.002
   0.15815242  0.10221185  0.00000000       0.002
   0.15736558  0.10357465  0.00000000       0.002
   0.15657873  0.10493745  0.00000000       0.002
   0.15579189  0.10630025  0.00000000       0.002
   0.15500504  0.10766305  0.00000000       0.002
   0.15421820  0.10902585  0.00000000       0.002
   0.15343136  0.11038865  0.00000000       0.002
   0.15264451  0.11175145  0.00000000       0.002
   0.15185767  0.11311425  0.00000000       0.002
   0.15107082  0.11447704  0.00000000       0.002
   0.15028398  0.11583984  0.00000000       0.002
   0.14949714  0.11720264  0.00000000       0.002
   0.14871029  0.11856544  0.00000000       0.002
   0.14792345  0.11992824  0.00000000       0.002
   0.14713660  0.12129104  0.00000000       0.002
   0.14634976  0.12265384  0.00000000       0.002
   0.14556291  0.12401664  0.00000000       0.002
   0.14477607  0.12537944  0.00000000       0.002
   0.14398923  0.12674224  0.00000000       0.002
   0.14320238  0.12810504  0.00000000       0.002
   0.14241554  0.12946784  0.00000000       0.002
   0.14162869  0.13083064  0.00000000       0.002
   0.14084185  0.13219344  0.00000000       0.002
   0.14005501  0.13355624  0.00000000       0.002
   0.13926816  0.13491904  0.00000000       0.002
   0.13848132  0.13628184  0.00000000       0.002
   0.13769447  0.13764464  0.00000000       0.002
   0.13690763  0.13900744  0.00000000       0.002
   0.13612078  0.14037024  0.00000000       0.002
   0.13533394  0.14173304  0.00000000       0.002
   0.13454710  0.14309584  0.00000000       0.002
   0.13376025  0.14445864  0.00000000       0.002
   0.13297341  0.14582143  0.00000000       0.002
   0.13218656  0.14718423  0.00000000       0.002
   0.13139972  0.14854703  0.00000000       0.002
   0.13061288  0.14990983  0.00000000       0.002
   0.12982603  0.15127263  0.00000000       0.002
   0.12903919  0.15263543  0.00000000       0.002
   0.12825234  0.15399823  0.00000000       0.002
   0.12746550  0.15536103  0.00000000       0.002
   0.12667865  0.15672383  0.00000000       0.002
   0.12589181  0.15808663  0.00000000       0.002
   0.12510497  0.15944943  0.00000000       0.002
   0.12431812  0.16081223  0.00000000       0.002
   0.12353128  0.16217503  0.00000000       0.002
   0.12274443  0.16353783  0.00000000       0.002
   0.12195759  0.16490063  0.00000000       0.002
   0.12117075  0.16626343  0.00000000       0.002
   0.12038390  0.16762623  0.00000000       0.002
   0.11959706  0.16898903  0.00000000       0.002
   0.11881021  0.17035183  0.00000000       0.002
   0.11802337  0.17171463  0.00000000       0.002
   0.11723652  0.17307743  0.00000000       0.002
   0.11644968  0.17444023  0.00000000       0.002
   0.11566284  0.17580303  0.00000000       0.002
   0.11487599  0.17716582  0.00000000       0.002
   0.11408915  0.17852862  0.00000000       0.002
   0.11330230  0.17989142  0.00000000       0.002
   0.11251546  0.18125422  0.00000000       0.002
   0.11172861  0.18261702  0.00000000       0.002
   0.11094177  0.18397982  0.00000000       0.002
   0.11015493  0.18534262  0.00000000       0.002
   0.10936808  0.18670542  0.00000000       0.002
   0.10858124  0.18806822  0.00000000       0.002
   0.10858124  0.18806822  0.00000000       0.002
   0.10700760  0.18534260  0.00000000       0.002
   0.10543396  0.18261697  0.00000000       0.002
   0.10386031  0.17989134  0.00000000       0.002
   0.10228667  0.17716572  0.00000000       0.002
   0.10071303  0.17444009  0.00000000       0.002
   0.09913939  0.17171446  0.00000000       0.002
   0.09756575  0.16898884  0.00000000       0.002
   0.09599211  0.16626321  0.00000000       0.002
   0.09441847  0.16353758  0.00000000       0.002
   0.09284483  0.16081196  0.00000000       0.002
   0.09127119  0.15808633  0.00000000       0.002
   0.08969754  0.15536070  0.00000000       0.002
   0.08812390  0.15263508  0.00000000       0.002
   0.08655026  0.14990945  0.00000000       0.002
   0.08497662  0.14718383  0.00000000       0.002
   0.08340298  0.14445820  0.00000000       0.002
   0.08182934  0.14173257  0.00000000       0.002
   0.08025570  0.13900695  0.00000000       0.002
   0.07868206  0.13628132  0.00000000       0.002
   0.07710842  0.13355569  0.00000000       0.002
   0.07553477  0.13083007  0.00000000       0.002
   0.07396113  0.12810444  0.00000000       0.002
   0.07238749  0.12537881  0.00000000       0.002
   0.07081385  0.12265319  0.00000000       0.002
   0.06924021  0.11992756  0.00000000       0.002
   0.06766657  0.11720194  0.00000000       0.002
   0.06609293  0.11447631  0.00000000       0.002
   0.06451929  0.11175068  0.00000000       0.002
   0.06294565  0.10902506  0.00000000       0.002
   0.06137200  0.10629943  0.00000000       0.002
   0.05979836  0.10357380  0.00000000       0.002
   0.05822472  0.10084818  0.00000000       0.002
   0.05665108  0.09812255  0.00000000       0.002
   0.05507744  0.09539692  0.00000000       0.002
   0.05350380  0.09267130  0.00000000       0.002
   0.05193016  0.08994567  0.00000000       0.002
   0.05035652  0.08722004  0.00000000       0.002
   0.04878288  0.08449442  0.00000000       0.002
   0.04720923  0.08176879  0.00000000       0.002
   0.04563559  0.07904317  0.00000000       0.002
   0.04406195  0.07631754  0.00000000       0.002
   0.04248831  0.07359191  0.00000000       0.002
   0.04091467  0.07086629  0.00000000       0.002
   0.03934103  0.06814066  0.00000000       0.002
   0.03776739  0.06541503  0.00000000       0.002
   0.03619375  0.06268941  0.00000000       0.002
   0.03462010  0.05996378  0.00000000       0.002
   0.03304646  0.05723815  0.00000000       0.002
   0.03147282  0.05451253  0.00000000       0.002
   0.02989918  0.05178690  0.00000000       0.002
   0.02832554  0.04906128  0.00000000       0.002
   0.02675190  0.04633565  0.00000000       0.002
   0.02517826  0.04361002  0.00000000       0.002
   0.02360462  0.04088440  0.00000000       0.002
   0.02203098  0.03815877  0.00000000       0.002
   0.02045733  0.03543314  0.00000000       0.002
   0.01888369  0.03270752  0.00000000       0.002
   0.01731005  0.02998189  0.00000000       0.002
   0.01573641  0.02725626  0.00000000       0.002
   0.01416277  0.02453064  0.00000000       0.002
   0.01258913  0.02180501  0.00000000       0.002
   0.01101549  0.01907938  0.00000000       0.002
   0.00944185  0.01635376  0.00000000       0.002
   0.00786821  0.01362813  0.00000000       0.002
   0.00629456  0.01090251  0.00000000       0.002
   0.00472092  0.00817688  0.00000000       0.002
   0.00314728  0.00545125  0.00000000       0.002
   0.00157364  0.00272563  0.00000000       0.002
   0.00000000  0.00000000  0.00000000       0.002
   0.00000000  0.00000000  0.00000000       0.002
   0.00000000  0.00000000  0.00145091       0.002
   0.00000000  0.00000000  0.00290182       0.002
   0.00000000  0.00000000  0.00435272       0.002
   0.00000000  0.00000000  0.00580363       0.002
   0.00000000  0.00000000  0.00725454       0.002
   0.00000000  0.00000000  0.00870545       0.002
   0.00000000  0.00000000  0.01015636       0.002
   0.00000000  0.00000000  0.01160727       0.002
   0.00000000  0.00000000  0.01305817       0.002
   0.00000000  0.00000000  0.01450908       0.002
   0.00000000  0.00000000  0.01595999       0.002
   0.00000000  0.00000000  0.01741090       0.002
   0.00000000  0.00000000  0.01886181       0.002
   0.00000000  0.00000000  0.02031271       0.002
   0.00000000  0.00000000  0.02176362       0.002
   0.00000000  0.00000000  0.02321453       0.002
   0.00000000  0.00000000  0.02466544       0.002
   0.00000000  0.00000000  0.02611635       0.002
   0.00000000  0.00000000  0.02756725       0.002
   0.00000000  0.00000000  0.02901816       0.002
   0.00000000  0.00000000  0.03046907       0.002
   0.00000000  0.00000000  0.03191998       0.002
   0.00000000  0.00000000  0.03337089       0.002
   0.00000000  0.00000000  0.03482180       0.002
   0.00000000  0.00000000  0.03627270       0.002
   0.00000000  0.00000000  0.03772361       0.002
   0.00000000  0.00000000  0.03917452       0.002
   0.00000000  0.00000000  0.04062543       0.002
   0.00000000  0.00000000  0.04207634       0.002
   0.00000000  0.00000000  0.04352724       0.002
   0.00000000  0.00000000  0.04497815       0.002
   0.00000000  0.00000000  0.04642906       0.002
   0.00000000  0.00000000  0.04787997       0.002
   0.00000000  0.00000000  0.04933088       0.002
   0.00000000  0.00000000  0.05078178       0.002
   0.00000000  0.00000000  0.05223269       0.002
   0.00000000  0.00000000  0.05368360       0.002
   0.00000000  0.00000000  0.05513451       0.002
   0.00000000  0.00000000  0.05658542       0.002
   0.00000000  0.00000000  0.05803633       0.002
   0.00000000  0.00000000  0.05948723       0.002
   0.00000000  0.00000000  0.06093814       0.002
   0.00000000  0.00000000  0.06238905       0.002
   0.00000000  0.00000000  0.06383996       0.002
   0.00000000  0.00000000  0.06529087       0.002
   0.00000000  0.00000000  0.06674177       0.002
   0.00000000  0.00000000  0.06819268       0.002
   0.00000000  0.00000000  0.06964359       0.002
   0.00000000  0.00000000  0.07109450       0.002
   0.00000000  0.00000000  0.07254541       0.002
   0.00000000  0.00000000  0.07399632       0.002
   0.00000000  0.00000000  0.07544722       0.002
   0.00000000  0.00000000  0.07689813       0.002
   0.00000000  0.00000000  0.07834904       0.002
   0.00000000  0.00000000  0.07979995       0.002
   0.00000000  0.00000000  0.08125086       0.002
   0.00000000  0.00000000  0.08270176       0.002
   0.00000000  0.00000000  0.08415267       0.002
   0.00000000  0.00000000  0.08560358       0.002
   0.00000000  0.00000000  0.08705449       0.002
   0.00000000  0.00000000  0.08850540       0.002
   0.00000000  0.00000000  0.08995630       0.002
   0.00000000  0.00000000  0.09140721       0.002
   0.00000000  0.00000000  0.09285812       0.002
   0.00000000  0.00000000  0.09430903       0.002
   0.00000000  0.00000000  0.09575994       0.002
   0.00000000  0.00000000  0.09721085       0.002
   0.00000000  0.00000000  0.09866175       0.002
   0.00000000  0.00000000  0.10011266       0.002
   0.00000000  0.00000000  0.10011266       0.002
   0.00236049  0.00136283  0.10011266       0.002
   0.00472097  0.00272565  0.10011266       0.002
   0.00708146  0.00408848  0.10011266       0.002
   0.00944194  0.00545131  0.10011266       0.002
   0.01180243  0.00681413  0.10011266       0.002
   0.01416291  0.00817696  0.10011266       0.002
   0.01652340  0.00953979  0.10011266       0.002
   0.01888388  0.01090261  0.10011266       0.002
   0.02124437  0.01226544  0.10011266       0.002
   0.02360485  0.01362827  0.10011266       0.002
   0.02596534  0.01499110  0.10011266       0.002
   0.02832582  0.01635392  0.10011266       0.002
   0.03068631  0.01771675  0.10011266       0.002
   0.03304679  0.01907958  0.10011266       0.002
   0.03540728  0.02044240  0.10011266       0.002
   0.03776776  0.02180523  0.10011266       0.002
   0.04012825  0.02316806  0.10011266       0.002
   0.04248874  0.02453088  0.10011266       0.002
   0.04484922  0.02589371  0.10011266       0.002
   0.04720971  0.02725654  0.10011266       0.002
   0.04957019  0.02861936  0.10011266       0.002
   0.05193068  0.02998219  0.10011266       0.002
   0.05429116  0.03134502  0.10011266       0.002
   0.05665165  0.03270784  0.10011266       0.002
   0.05901213  0.03407067  0.10011266       0.002
   0.06137262  0.03543350  0.10011266       0.002
   0.06373310  0.03679632  0.10011266       0.002
   0.06609359  0.03815915  0.10011266       0.002
   0.06845407  0.03952198  0.10011266       0.002
   0.07081456  0.04088480  0.10011266       0.002
   0.07317504  0.04224763  0.10011266       0.002
   0.07553553  0.04361046  0.10011266       0.002
   0.07789602  0.04497329  0.10011266       0.002
   0.08025650  0.04633611  0.10011266       0.002
   0.08261699  0.04769894  0.10011266       0.002
   0.08497747  0.04906177  0.10011266       0.002
   0.08733796  0.05042459  0.10011266       0.002
   0.08969844  0.05178742  0.10011266       0.002
   0.09205893  0.05315025  0.10011266       0.002
   0.09441941  0.05451307  0.10011266       0.002
   0.09677990  0.05587590  0.10011266       0.002
   0.09914038  0.05723873  0.10011266       0.002
   0.10150087  0.05860155  0.10011266       0.002
   0.10386135  0.05996438  0.10011266       0.002
   0.10622184  0.06132721  0.10011266       0.002
   0.10858232  0.06269003  0.10011266       0.002
   0.11094281  0.06405286  0.10011266       0.002
   0.11330329  0.06541569  0.10011266       0.002
   0.11566378  0.06677851  0.10011266       0.002
   0.11802427  0.06814134  0.10011266       0.002
   0.12038475  0.06950417  0.10011266       0.002
   0.12274524  0.07086700  0.10011266       0.002
   0.12510572  0.07222982  0.10011266       0.002
   0.12746621  0.07359265  0.10011266       0.002
   0.12982669  0.07495548  0.10011266       0.002
   0.13218718  0.07631830  0.10011266       0.002
   0.13454766  0.07768113  0.10011266       0.002
   0.13690815  0.07904396  0.10011266       0.002
   0.13926863  0.08040678  0.10011266       0.002
   0.14162912  0.08176961  0.10011266       0.002
   0.14398960  0.08313244  0.10011266       0.002
   0.14635009  0.08449526  0.10011266       0.002
   0.14871057  0.08585809  0.10011266       0.002
   0.15107106  0.08722092  0.10011266       0.002
   0.15343154  0.08858374  0.10011266       0.002
   0.15579203  0.08994657  0.10011266       0.002
   0.15815252  0.09130940  0.10011266       0.002
   0.16051300  0.09267222  0.10011266       0.002
   0.16287349  0.09403505  0.10011266       0.002
   0.16287349  0.09403505  0.10011266       0.002
   0.16208664  0.09539785  0.10011266       0.002
   0.16129980  0.09676065  0.10011266       0.002
   0.16051295  0.09812345  0.10011266       0.002
   0.15972611  0.09948625  0.10011266       0.002
   0.15893927  0.10084905  0.10011266       0.002
   0.15815242  0.10221185  0.10011266       0.002
   0.15736558  0.10357465  0.10011266       0.002
   0.15657873  0.10493745  0.10011266       0.002
   0.15579189  0.10630025  0.10011266       0.002
   0.15500504  0.10766305  0.10011266       0.002
   0.15421820  0.10902585  0.10011266       0.002
   0.15343136  0.11038865  0.10011266       0.002
   0.15264451  0.11175145  0.10011266       0.002
   0.15185767  0.11311425  0.10011266       0.002
   0.15107082  0.11447704  0.10011266       0.002
   0.15028398  0.11583984  0.10011266       0.002
   0.14949714  0.11720264  0.10011266       0.002
   0.14871029  0.11856544  0.10011266       0.002
   0.14792345  0.11992824  0.10011266       0.002
   0.14713660  0.12129104  0.10011266       0.002
   0.14634976  0.12265384  0.10011266       0.002
   0.14556291  0.12401664  0.10011266       0.002
   0.14477607  0.12537944  0.10011266       0.002
   0.14398923  0.12674224  0.10011266       0.002
   0.14320238  0.12810504  0.10011266       0.002
   0.14241554  0.12946784  0.10011266       0.002
   0.14162869  0.13083064  0.10011266       0.002
   0.14084185  0.13219344  0.10011266       0.002
   0.14005501  0.13355624  0.10011266       0.002
   0.13926816  0.13491904  0.10011266       0.002
   0.13848132  0.13628184  0.10011266       0.002
   0.13769447  0.13764464  0.10011266       0.002
   0.13690763  0.13900744  0.10011266       0.002
   0.13612078  0.14037024  0.10011266       0.002
   0.13533394  0.14173304  0.10011266       0.002
   0.13454710  0.14309584  0.10011266       0.002
   0.13376025  0.14445864  0.10011266       0.002
   0.13297341  0.14582143  0.10011266       0.002
   0.13218656  0.14718423  0.10011266       0.002
   0.13139972  0.14854703  0.10011266       0.002
   0.13061288  0.14990983  0.10011266       0.002
   0.12982603  0.15127263  0.10011266       0.002
   0.12903919  0.15263543  0.10011266       0.002
   0.12825234  0.15399823  0.10011266       0.002
   0.12746550  0.15536103  0.10011266       0.002
   0.12667865  0.15672383  0.10011266       0.002
   0.12589181  0.15808663  0.10011266       0.002
   0.12510497  0.15944943  0.10011266       0.002
   0.12431812  0.16081223  0.10011266       0.002
   0.12353128  0.16217503  0.10011266       0.002
   0.12274443  0.16353783  0.10011266       0.002
   0.12195759  0.16490063  0.10011266       0.002
   0.12117075  0.16626343  0.10011266       0.002
   0.12038390  0.16762623  0.10011266       0.002
   0.11959706  0.16898903  0.10011266       0.002
   0.11881021  0.17035183  0.10011266       0.002
   0.11802337  0.17171463  0.10011266       0.002
   0.11723652  0.17307743  0.10011266       0.002
   0.11644968  0.17444023  0.10011266       0.002
   0.11566284  0.17580303  0.10011266       0.002
   0.11487599  0.17716582  0.10011266       0.002
   0.11408915  0.17852862  0.10011266       0.002
   0.11330230  0.17989142  0.10011266       0.002
   0.11251546  0.18125422  0.10011266       0.002
   0.11172861  0.18261702  0.10011266       0.002
   0.11094177  0.18397982  0.10011266       0.002
   0.11015493  0.18534262  0.10011266       0.002
   0.10936808  0.18670542  0.10011266       0.002
   0.10858124  0.18806822  0.10011266       0.002
   0.10858124  0.18806822  0.10011266       0.002
   0.10700760  0.18534260  0.10011266       0.002
   0.10543396  0.18261697  0.10011266       0.002
   0.10386031  0.17989134  0.10011266       0.002
   0.10228667  0.17716572  0.10011266       0.002
   0.10071303  0.17444009  0.10011266       0.002
   0.09913939  0.17171446  0.10011266       0.002
   0.09756575  0.16898884  0.10011266       0.002
   0.09599211  0.16626321  0.10011266       0.002
   0.09441847  0.16353758  0.10011266       0.002
   0.09284483  0.16081196  0.10011266       0.002
   0.09127119  0.15808633  0.10011266       0.002
   0.08969754  0.15536070  0.10011266       0.002
   0.08812390  0.15263508  0.10011266       0.002
   0.08655026  0.14990945  0.10011266       0.002
   0.08497662  0.14718383  0.10011266       0.002
   0.08340298  0.14445820  0.10011266       0.002
   0.08182934  0.14173257  0.10011266       0.002
   0.08025570  0.13900695  0.10011266       0.002
   0.07868206  0.13628132  0.10011266       0.002
   0.07710842  0.13355569  0.10011266       0.002
   0.07553477  0.13083007  0.10011266       0.002
   0.07396113  0.12810444  0.10011266       0.002
   0.07238749  0.12537881  0.10011266       0.002
   0.07081385  0.12265319  0.10011266       0.002
   0.06924021  0.11992756  0.10011266       0.002
   0.06766657  0.11720194  0.10011266       0.002
   0.06609293  0.11447631  0.10011266       0.002
   0.06451929  0.11175068  0.10011266       0.002
   0.06294565  0.10902506  0.10011266       0.002
   0.06137200  0.10629943  0.10011266       0.002
   0.05979836  0.10357380  0.10011266       0.002
   0.05822472  0.10084818  0.10011266       0.002
   0.05665108  0.09812255  0.10011266       0.002
   0.05507744  0.09539692  0.10011266       0.002
   0.05350380  0.09267130  0.10011266       0.002
   0.05193016  0.08994567  0.10011266       0.002
   0.05035652  0.08722004  0.10011266       0.002
   0.04878288  0.08449442  0.10011266       0.002
   0.04720923  0.08176879  0.10011266       0.002
   0.04563559  0.07904317  0.10011266       0.002
   0.04406195  0.07631754  0.10011266       0.002
   0.04248831  0.07359191  0.10011266       0.002
   0.04091467  0.07086629  0.10011266       0.002
   0.03934103  0.06814066  0.10011266       0.002
   0.03776739  0.06541503  0.10011266       0.002
   0.03619375  0.06268941  0.10011266       0.002
   0.03462010  0.05996378  0.10011266       0.002
   0.03304646  0.05723815  0.10011266       0.002
   0.03147282  0.05451253  0.10011266       0.002
   0.02989918  0.05178690  0.10011266       0.002
   0.02832554  0.04906128  0.10011266       0.002
   0.02675190  0.04633565  0.10011266       0.002
   0.02517826  0.04361002  0.10011266       0.002
   0.02360462  0.04088440  0.10011266       0.002
   0.02203098  0.03815877  0.10011266       0.002
   0.02045733  0.03543314  0.10011266       0.002
   0.01888369  0.03270752  0.10011266       0.002
   0.01731005  0.02998189  0.10011266       0.002
   0.01573641  0.02725626  0.10011266       0.002
   0.01416277  0.02453064  0.10011266       0.002
   0.01258913  0.02180501  0.10011266       0.002
   0.01101549  0.01907938  0.10011266       0.002
   0.00944185  0.01635376  0.10011266       0.002
   0.00786821  0.01362813  0.10011266       0.002
   0.00629456  0.01090251  0.10011266       0.002
   0.00472092  0.00817688  0.10011266       0.002
   0.00314728  0.00545125  0.10011266       0.002
   0.00157364  0.00272563  0.10011266       0.002
   0.00000000  0.00000000  0.10011266       0.002
 
 k-points in reciprocal lattice and weights: k-points for bandstructure G-M-K-G-A-L-H
   0.00000000  0.00000000  0.00000000       0.002
   0.00724638  0.00000000  0.00000000       0.002
   0.01449275  0.00000000  0.00000000       0.002
   0.02173913  0.00000000  0.00000000       0.002
   0.02898551  0.00000000  0.00000000       0.002
   0.03623188  0.00000000  0.00000000       0.002
   0.04347826  0.00000000  0.00000000       0.002
   0.05072464  0.00000000  0.00000000       0.002
   0.05797101  0.00000000  0.00000000       0.002
   0.06521739  0.00000000  0.00000000       0.002
   0.07246377  0.00000000  0.00000000       0.002
   0.07971014  0.00000000  0.00000000       0.002
   0.08695652  0.00000000  0.00000000       0.002
   0.09420290  0.00000000  0.00000000       0.002
   0.10144928  0.00000000  0.00000000       0.002
   0.10869565  0.00000000  0.00000000       0.002
   0.11594203  0.00000000  0.00000000       0.002
   0.12318841  0.00000000  0.00000000       0.002
   0.13043478  0.00000000  0.00000000       0.002
   0.13768116  0.00000000  0.00000000       0.002
   0.14492754  0.00000000  0.00000000       0.002
   0.15217391  0.00000000  0.00000000       0.002
   0.15942029  0.00000000  0.00000000       0.002
   0.16666667  0.00000000  0.00000000       0.002
   0.17391304  0.00000000  0.00000000       0.002
   0.18115942  0.00000000  0.00000000       0.002
   0.18840580  0.00000000  0.00000000       0.002
   0.19565217  0.00000000  0.00000000       0.002
   0.20289855  0.00000000  0.00000000       0.002
   0.21014493  0.00000000  0.00000000       0.002
   0.21739130  0.00000000  0.00000000       0.002
   0.22463768  0.00000000  0.00000000       0.002
   0.23188406  0.00000000  0.00000000       0.002
   0.23913043  0.00000000  0.00000000       0.002
   0.24637681  0.00000000  0.00000000       0.002
   0.25362319  0.00000000  0.00000000       0.002
   0.26086957  0.00000000  0.00000000       0.002
   0.26811594  0.00000000  0.00000000       0.002
   0.27536232  0.00000000  0.00000000       0.002
   0.28260870  0.00000000  0.00000000       0.002
   0.28985507  0.00000000  0.00000000       0.002
   0.29710145  0.00000000  0.00000000       0.002
   0.30434783  0.00000000  0.00000000       0.002
   0.31159420  0.00000000  0.00000000       0.002
   0.31884058  0.00000000  0.00000000       0.002
   0.32608696  0.00000000  0.00000000       0.002
   0.33333333  0.00000000  0.00000000       0.002
   0.34057971  0.00000000  0.00000000       0.002
   0.34782609  0.00000000  0.00000000       0.002
   0.35507246  0.00000000  0.00000000       0.002
   0.36231884  0.00000000  0.00000000       0.002
   0.36956522  0.00000000  0.00000000       0.002
   0.37681159  0.00000000  0.00000000       0.002
   0.38405797  0.00000000  0.00000000       0.002
   0.39130435  0.00000000  0.00000000       0.002
   0.39855072  0.00000000  0.00000000       0.002
   0.40579710  0.00000000  0.00000000       0.002
   0.41304348  0.00000000  0.00000000       0.002
   0.42028986  0.00000000  0.00000000       0.002
   0.42753623  0.00000000  0.00000000       0.002
   0.43478261  0.00000000  0.00000000       0.002
   0.44202899  0.00000000  0.00000000       0.002
   0.44927536  0.00000000  0.00000000       0.002
   0.45652174  0.00000000  0.00000000       0.002
   0.46376812  0.00000000  0.00000000       0.002
   0.47101449  0.00000000  0.00000000       0.002
   0.47826087  0.00000000  0.00000000       0.002
   0.48550725  0.00000000  0.00000000       0.002
   0.49275362  0.00000000  0.00000000       0.002
   0.50000000  0.00000000  0.00000000       0.002
   0.50000000  0.00000000  0.00000000       0.002
   0.49758449  0.00483087  0.00000000       0.002
   0.49516899  0.00966174  0.00000000       0.002
   0.49275348  0.01449261  0.00000000       0.002
   0.49033797  0.01932348  0.00000000       0.002
   0.48792246  0.02415435  0.00000000       0.002
   0.48550696  0.02898522  0.00000000       0.002
   0.48309145  0.03381609  0.00000000       0.002
   0.48067594  0.03864696  0.00000000       0.002
   0.47826043  0.04347783  0.00000000       0.002
   0.47584493  0.04830870  0.00000000       0.002
   0.47342942  0.05313957  0.00000000       0.002
   0.47101391  0.05797043  0.00000000       0.002
   0.46859841  0.06280130  0.00000000       0.002
   0.46618290  0.06763217  0.00000000       0.002
   0.46376739  0.07246304  0.00000000       0.002
   0.46135188  0.07729391  0.00000000       0.002
   0.45893638  0.08212478  0.00000000       0.002
   0.45652087  0.08695565  0.00000000       0.002
   0.45410536  0.09178652  0.00000000       0.002
   0.45168986  0.09661739  0.00000000       0.002
   0.44927435  0.10144826  0.00000000       0.002
   0.44685884  0.10627913  0.00000000       0.002
   0.44444333  0.11111000  0.00000000       0.002
   0.44202783  0.11594087  0.00000000       0.002
   0.43961232  0.12077174  0.00000000       0.002
   0.43719681  0.12560261  0.00000000       0.002
   0.43478130  0.13043348  0.00000000       0.002
   0.43236580  0.13526435  0.00000000       0.002
   0.42995029  0.14009522  0.00000000       0.002
   0.42753478  0.14492609  0.00000000       0.002
   0.42511928  0.14975696  0.00000000       0.002
   0.42270377  0.15458783  0.00000000       0.002
   0.42028826  0.15941870  0.00000000       0.002
   0.41787275  0.16424957  0.00000000       0.002
   0.41545725  0.16908043  0.00000000       0.002
   0.41304174  0.17391130  0.00000000       0.002
   0.41062623  0.17874217  0.00000000       0.002
   0.40821072  0.18357304  0.00000000       0.002
   0.40579522  0.18840391  0.00000000       0.002
   0.40337971  0.19323478  0.00000000       0.002
   0.40096420  0.19806565  0.00000000       0.002
   0.39854870  0.20289652  0.00000000       0.002
   0.39613319  0.20772739  0.00000000       0.002
   0.39371768  0.21255826  0.00000000       0.002
   0.39130217  0.21738913  0.00000000       0.002
   0.38888667  0.22222000  0.00000000       0.002
   0.38647116  0.22705087  0.00000000       0.002
   0.38405565  0.23188174  0.00000000       0.002
   0.38164014  0.23671261  0.00000000       0.002
   0.37922464  0.24154348  0.00000000       0.002
   0.37680913  0.24637435  0.00000000       0.002
   0.37439362  0.25120522  0.00000000       0.002
   0.37197812  0.25603609  0.00000000       0.002
   0.36956261  0.26086696  0.00000000       0.002
   0.36714710  0.26569783  0.00000000       0.002
   0.36473159  0.27052870  0.00000000       0.002
   0.36231609  0.27535957  0.00000000       0.002
   0.35990058  0.28019043  0.00000000       0.002
   0.35748507  0.28502130  0.00000000       0.002
   0.35506957  0.28985217  0.00000000       0.002
   0.35265406  0.29468304  0.00000000       0.002
   0.35023855  0.29951391  0.00000000       0.002
   0.34782304  0.30434478  0.00000000       0.002
   0.34540754  0.30917565  0.00000000       0.002
   0.34299203  0.31400652  0.00000000       0.002
   0.34057652  0.31883739  0.00000000       0.002
   0.33816101  0.32366826  0.00000000       0.002
   0.33574551  0.32849913  0.00000000       0.002
   0.33333000  0.33333000  0.00000000       0.002
   0.33333000  0.33333000  0.00000000       0.002
   0.32849913  0.32849913  0.00000000       0.002
   0.32366826  0.32366826  0.00000000       0.002
   0.31883739  0.31883739  0.00000000       0.002
   0.31400652  0.31400652  0.00000000       0.002
   0.30917565  0.30917565  0.00000000       0.002
   0.30434478  0.30434478  0.00000000       0.002
   0.29951391  0.29951391  0.00000000       0.002
   0.29468304  0.29468304  0.00000000       0.002
   0.28985217  0.28985217  0.00000000       0.002
   0.28502130  0.28502130  0.00000000       0.002
   0.28019043  0.28019043  0.00000000       0.002
   0.27535957  0.27535957  0.00000000       0.002
   0.27052870  0.27052870  0.00000000       0.002
   0.26569783  0.26569783  0.00000000       0.002
   0.26086696  0.26086696  0.00000000       0.002
   0.25603609  0.25603609  0.00000000       0.002
   0.25120522  0.25120522  0.00000000       0.002
   0.24637435  0.24637435  0.00000000       0.002
   0.24154348  0.24154348  0.00000000       0.002
   0.23671261  0.23671261  0.00000000       0.002
   0.23188174  0.23188174  0.00000000       0.002
   0.22705087  0.22705087  0.00000000       0.002
   0.22222000  0.22222000  0.00000000       0.002
   0.21738913  0.21738913  0.00000000       0.002
   0.21255826  0.21255826  0.00000000       0.002
   0.20772739  0.20772739  0.00000000       0.002
   0.20289652  0.20289652  0.00000000       0.002
   0.19806565  0.19806565  0.00000000       0.002
   0.19323478  0.19323478  0.00000000       0.002
   0.18840391  0.18840391  0.00000000       0.002
   0.18357304  0.18357304  0.00000000       0.002
   0.17874217  0.17874217  0.00000000       0.002
   0.17391130  0.17391130  0.00000000       0.002
   0.16908043  0.16908043  0.00000000       0.002
   0.16424957  0.16424957  0.00000000       0.002
   0.15941870  0.15941870  0.00000000       0.002
   0.15458783  0.15458783  0.00000000       0.002
   0.14975696  0.14975696  0.00000000       0.002
   0.14492609  0.14492609  0.00000000       0.002
   0.14009522  0.14009522  0.00000000       0.002
   0.13526435  0.13526435  0.00000000       0.002
   0.13043348  0.13043348  0.00000000       0.002
   0.12560261  0.12560261  0.00000000       0.002
   0.12077174  0.12077174  0.00000000       0.002
   0.11594087  0.11594087  0.00000000       0.002
   0.11111000  0.11111000  0.00000000       0.002
   0.10627913  0.10627913  0.00000000       0.002
   0.10144826  0.10144826  0.00000000       0.002
   0.09661739  0.09661739  0.00000000       0.002
   0.09178652  0.09178652  0.00000000       0.002
   0.08695565  0.08695565  0.00000000       0.002
   0.08212478  0.08212478  0.00000000       0.002
   0.07729391  0.07729391  0.00000000       0.002
   0.07246304  0.07246304  0.00000000       0.002
   0.06763217  0.06763217  0.00000000       0.002
   0.06280130  0.06280130  0.00000000       0.002
   0.05797043  0.05797043  0.00000000       0.002
   0.05313957  0.05313957  0.00000000       0.002
   0.04830870  0.04830870  0.00000000       0.002
   0.04347783  0.04347783  0.00000000       0.002
   0.03864696  0.03864696  0.00000000       0.002
   0.03381609  0.03381609  0.00000000       0.002
   0.02898522  0.02898522  0.00000000       0.002
   0.02415435  0.02415435  0.00000000       0.002
   0.01932348  0.01932348  0.00000000       0.002
   0.01449261  0.01449261  0.00000000       0.002
   0.00966174  0.00966174  0.00000000       0.002
   0.00483087  0.00483087  0.00000000       0.002
   0.00000000  0.00000000  0.00000000       0.002
   0.00000000  0.00000000  0.00000000       0.002
   0.00000000  0.00000000  0.00724638       0.002
   0.00000000  0.00000000  0.01449275       0.002
   0.00000000  0.00000000  0.02173913       0.002
   0.00000000  0.00000000  0.02898551       0.002
   0.00000000  0.00000000  0.03623188       0.002
   0.00000000  0.00000000  0.04347826       0.002
   0.00000000  0.00000000  0.05072464       0.002
   0.00000000  0.00000000  0.05797101       0.002
   0.00000000  0.00000000  0.06521739       0.002
   0.00000000  0.00000000  0.07246377       0.002
   0.00000000  0.00000000  0.07971014       0.002
   0.00000000  0.00000000  0.08695652       0.002
   0.00000000  0.00000000  0.09420290       0.002
   0.00000000  0.00000000  0.10144928       0.002
   0.00000000  0.00000000  0.10869565       0.002
   0.00000000  0.00000000  0.11594203       0.002
   0.00000000  0.00000000  0.12318841       0.002
   0.00000000  0.00000000  0.13043478       0.002
   0.00000000  0.00000000  0.13768116       0.002
   0.00000000  0.00000000  0.14492754       0.002
   0.00000000  0.00000000  0.15217391       0.002
   0.00000000  0.00000000  0.15942029       0.002
   0.00000000  0.00000000  0.16666667       0.002
   0.00000000  0.00000000  0.17391304       0.002
   0.00000000  0.00000000  0.18115942       0.002
   0.00000000  0.00000000  0.18840580       0.002
   0.00000000  0.00000000  0.19565217       0.002
   0.00000000  0.00000000  0.20289855       0.002
   0.00000000  0.00000000  0.21014493       0.002
   0.00000000  0.00000000  0.21739130       0.002
   0.00000000  0.00000000  0.22463768       0.002
   0.00000000  0.00000000  0.23188406       0.002
   0.00000000  0.00000000  0.23913043       0.002
   0.00000000  0.00000000  0.24637681       0.002
   0.00000000  0.00000000  0.25362319       0.002
   0.00000000  0.00000000  0.26086957       0.002
   0.00000000  0.00000000  0.26811594       0.002
   0.00000000  0.00000000  0.27536232       0.002
   0.00000000  0.00000000  0.28260870       0.002
   0.00000000  0.00000000  0.28985507       0.002
   0.00000000  0.00000000  0.29710145       0.002
   0.00000000  0.00000000  0.30434783       0.002
   0.00000000  0.00000000  0.31159420       0.002
   0.00000000  0.00000000  0.31884058       0.002
   0.00000000  0.00000000  0.32608696       0.002
   0.00000000  0.00000000  0.33333333       0.002
   0.00000000  0.00000000  0.34057971       0.002
   0.00000000  0.00000000  0.34782609       0.002
   0.00000000  0.00000000  0.35507246       0.002
   0.00000000  0.00000000  0.36231884       0.002
   0.00000000  0.00000000  0.36956522       0.002
   0.00000000  0.00000000  0.37681159       0.002
   0.00000000  0.00000000  0.38405797       0.002
   0.00000000  0.00000000  0.39130435       0.002
   0.00000000  0.00000000  0.39855072       0.002
   0.00000000  0.00000000  0.40579710       0.002
   0.00000000  0.00000000  0.41304348       0.002
   0.00000000  0.00000000  0.42028986       0.002
   0.00000000  0.00000000  0.42753623       0.002
   0.00000000  0.00000000  0.43478261       0.002
   0.00000000  0.00000000  0.44202899       0.002
   0.00000000  0.00000000  0.44927536       0.002
   0.00000000  0.00000000  0.45652174       0.002
   0.00000000  0.00000000  0.46376812       0.002
   0.00000000  0.00000000  0.47101449       0.002
   0.00000000  0.00000000  0.47826087       0.002
   0.00000000  0.00000000  0.48550725       0.002
   0.00000000  0.00000000  0.49275362       0.002
   0.00000000  0.00000000  0.50000000       0.002
   0.00000000  0.00000000  0.50000000       0.002
   0.00724638  0.00000000  0.50000000       0.002
   0.01449275  0.00000000  0.50000000       0.002
   0.02173913  0.00000000  0.50000000       0.002
   0.02898551  0.00000000  0.50000000       0.002
   0.03623188  0.00000000  0.50000000       0.002
   0.04347826  0.00000000  0.50000000       0.002
   0.05072464  0.00000000  0.50000000       0.002
   0.05797101  0.00000000  0.50000000       0.002
   0.06521739  0.00000000  0.50000000       0.002
   0.07246377  0.00000000  0.50000000       0.002
   0.07971014  0.00000000  0.50000000       0.002
   0.08695652  0.00000000  0.50000000       0.002
   0.09420290  0.00000000  0.50000000       0.002
   0.10144928  0.00000000  0.50000000       0.002
   0.10869565  0.00000000  0.50000000       0.002
   0.11594203  0.00000000  0.50000000       0.002
   0.12318841  0.00000000  0.50000000       0.002
   0.13043478  0.00000000  0.50000000       0.002
   0.13768116  0.00000000  0.50000000       0.002
   0.14492754  0.00000000  0.50000000       0.002
   0.15217391  0.00000000  0.50000000       0.002
   0.15942029  0.00000000  0.50000000       0.002
   0.16666667  0.00000000  0.50000000       0.002
   0.17391304  0.00000000  0.50000000       0.002
   0.18115942  0.00000000  0.50000000       0.002
   0.18840580  0.00000000  0.50000000       0.002
   0.19565217  0.00000000  0.50000000       0.002
   0.20289855  0.00000000  0.50000000       0.002
   0.21014493  0.00000000  0.50000000       0.002
   0.21739130  0.00000000  0.50000000       0.002
   0.22463768  0.00000000  0.50000000       0.002
   0.23188406  0.00000000  0.50000000       0.002
   0.23913043  0.00000000  0.50000000       0.002
   0.24637681  0.00000000  0.50000000       0.002
   0.25362319  0.00000000  0.50000000       0.002
   0.26086957  0.00000000  0.50000000       0.002
   0.26811594  0.00000000  0.50000000       0.002
   0.27536232  0.00000000  0.50000000       0.002
   0.28260870  0.00000000  0.50000000       0.002
   0.28985507  0.00000000  0.50000000       0.002
   0.29710145  0.00000000  0.50000000       0.002
   0.30434783  0.00000000  0.50000000       0.002
   0.31159420  0.00000000  0.50000000       0.002
   0.31884058  0.00000000  0.50000000       0.002
   0.32608696  0.00000000  0.50000000       0.002
   0.33333333  0.00000000  0.50000000       0.002
   0.34057971  0.00000000  0.50000000       0.002
   0.34782609  0.00000000  0.50000000       0.002
   0.35507246  0.00000000  0.50000000       0.002
   0.36231884  0.00000000  0.50000000       0.002
   0.36956522  0.00000000  0.50000000       0.002
   0.37681159  0.00000000  0.50000000       0.002
   0.38405797  0.00000000  0.50000000       0.002
   0.39130435  0.00000000  0.50000000       0.002
   0.39855072  0.00000000  0.50000000       0.002
   0.40579710  0.00000000  0.50000000       0.002
   0.41304348  0.00000000  0.50000000       0.002
   0.42028986  0.00000000  0.50000000       0.002
   0.42753623  0.00000000  0.50000000       0.002
   0.43478261  0.00000000  0.50000000       0.002
   0.44202899  0.00000000  0.50000000       0.002
   0.44927536  0.00000000  0.50000000       0.002
   0.45652174  0.00000000  0.50000000       0.002
   0.46376812  0.00000000  0.50000000       0.002
   0.47101449  0.00000000  0.50000000       0.002
   0.47826087  0.00000000  0.50000000       0.002
   0.48550725  0.00000000  0.50000000       0.002
   0.49275362  0.00000000  0.50000000       0.002
   0.50000000  0.00000000  0.50000000       0.002
   0.50000000  0.00000000  0.50000000       0.002
   0.49758449  0.00483087  0.50000000       0.002
   0.49516899  0.00966174  0.50000000       0.002
   0.49275348  0.01449261  0.50000000       0.002
   0.49033797  0.01932348  0.50000000       0.002
   0.48792246  0.02415435  0.50000000       0.002
   0.48550696  0.02898522  0.50000000       0.002
   0.48309145  0.03381609  0.50000000       0.002
   0.48067594  0.03864696  0.50000000       0.002
   0.47826043  0.04347783  0.50000000       0.002
   0.47584493  0.04830870  0.50000000       0.002
   0.47342942  0.05313957  0.50000000       0.002
   0.47101391  0.05797043  0.50000000       0.002
   0.46859841  0.06280130  0.50000000       0.002
   0.46618290  0.06763217  0.50000000       0.002
   0.46376739  0.07246304  0.50000000       0.002
   0.46135188  0.07729391  0.50000000       0.002
   0.45893638  0.08212478  0.50000000       0.002
   0.45652087  0.08695565  0.50000000       0.002
   0.45410536  0.09178652  0.50000000       0.002
   0.45168986  0.09661739  0.50000000       0.002
   0.44927435  0.10144826  0.50000000       0.002
   0.44685884  0.10627913  0.50000000       0.002
   0.44444333  0.11111000  0.50000000       0.002
   0.44202783  0.11594087  0.50000000       0.002
   0.43961232  0.12077174  0.50000000       0.002
   0.43719681  0.12560261  0.50000000       0.002
   0.43478130  0.13043348  0.50000000       0.002
   0.43236580  0.13526435  0.50000000       0.002
   0.42995029  0.14009522  0.50000000       0.002
   0.42753478  0.14492609  0.50000000       0.002
   0.42511928  0.14975696  0.50000000       0.002
   0.42270377  0.15458783  0.50000000       0.002
   0.42028826  0.15941870  0.50000000       0.002
   0.41787275  0.16424957  0.50000000       0.002
   0.41545725  0.16908043  0.50000000       0.002
   0.41304174  0.17391130  0.50000000       0.002
   0.41062623  0.17874217  0.50000000       0.002
   0.40821072  0.18357304  0.50000000       0.002
   0.40579522  0.18840391  0.50000000       0.002
   0.40337971  0.19323478  0.50000000       0.002
   0.40096420  0.19806565  0.50000000       0.002
   0.39854870  0.20289652  0.50000000       0.002
   0.39613319  0.20772739  0.50000000       0.002
   0.39371768  0.21255826  0.50000000       0.002
   0.39130217  0.21738913  0.50000000       0.002
   0.38888667  0.22222000  0.50000000       0.002
   0.38647116  0.22705087  0.50000000       0.002
   0.38405565  0.23188174  0.50000000       0.002
   0.38164014  0.23671261  0.50000000       0.002
   0.37922464  0.24154348  0.50000000       0.002
   0.37680913  0.24637435  0.50000000       0.002
   0.37439362  0.25120522  0.50000000       0.002
   0.37197812  0.25603609  0.50000000       0.002
   0.36956261  0.26086696  0.50000000       0.002
   0.36714710  0.26569783  0.50000000       0.002
   0.36473159  0.27052870  0.50000000       0.002
   0.36231609  0.27535957  0.50000000       0.002
   0.35990058  0.28019043  0.50000000       0.002
   0.35748507  0.28502130  0.50000000       0.002
   0.35506957  0.28985217  0.50000000       0.002
   0.35265406  0.29468304  0.50000000       0.002
   0.35023855  0.29951391  0.50000000       0.002
   0.34782304  0.30434478  0.50000000       0.002
   0.34540754  0.30917565  0.50000000       0.002
   0.34299203  0.31400652  0.50000000       0.002
   0.34057652  0.31883739  0.50000000       0.002
   0.33816101  0.32366826  0.50000000       0.002
   0.33574551  0.32849913  0.50000000       0.002
   0.33333000  0.33333000  0.50000000       0.002
   0.33333000  0.33333000  0.50000000       0.002
   0.32849913  0.32849913  0.50000000       0.002
   0.32366826  0.32366826  0.50000000       0.002
   0.31883739  0.31883739  0.50000000       0.002
   0.31400652  0.31400652  0.50000000       0.002
   0.30917565  0.30917565  0.50000000       0.002
   0.30434478  0.30434478  0.50000000       0.002
   0.29951391  0.29951391  0.50000000       0.002
   0.29468304  0.29468304  0.50000000       0.002
   0.28985217  0.28985217  0.50000000       0.002
   0.28502130  0.28502130  0.50000000       0.002
   0.28019043  0.28019043  0.50000000       0.002
   0.27535957  0.27535957  0.50000000       0.002
   0.27052870  0.27052870  0.50000000       0.002
   0.26569783  0.26569783  0.50000000       0.002
   0.26086696  0.26086696  0.50000000       0.002
   0.25603609  0.25603609  0.50000000       0.002
   0.25120522  0.25120522  0.50000000       0.002
   0.24637435  0.24637435  0.50000000       0.002
   0.24154348  0.24154348  0.50000000       0.002
   0.23671261  0.23671261  0.50000000       0.002
   0.23188174  0.23188174  0.50000000       0.002
   0.22705087  0.22705087  0.50000000       0.002
   0.22222000  0.22222000  0.50000000       0.002
   0.21738913  0.21738913  0.50000000       0.002
   0.21255826  0.21255826  0.50000000       0.002
   0.20772739  0.20772739  0.50000000       0.002
   0.20289652  0.20289652  0.50000000       0.002
   0.19806565  0.19806565  0.50000000       0.002
   0.19323478  0.19323478  0.50000000       0.002
   0.18840391  0.18840391  0.50000000       0.002
   0.18357304  0.18357304  0.50000000       0.002
   0.17874217  0.17874217  0.50000000       0.002
   0.17391130  0.17391130  0.50000000       0.002
   0.16908043  0.16908043  0.50000000       0.002
   0.16424957  0.16424957  0.50000000       0.002
   0.15941870  0.15941870  0.50000000       0.002
   0.15458783  0.15458783  0.50000000       0.002
   0.14975696  0.14975696  0.50000000       0.002
   0.14492609  0.14492609  0.50000000       0.002
   0.14009522  0.14009522  0.50000000       0.002
   0.13526435  0.13526435  0.50000000       0.002
   0.13043348  0.13043348  0.50000000       0.002
   0.12560261  0.12560261  0.50000000       0.002
   0.12077174  0.12077174  0.50000000       0.002
   0.11594087  0.11594087  0.50000000       0.002
   0.11111000  0.11111000  0.50000000       0.002
   0.10627913  0.10627913  0.50000000       0.002
   0.10144826  0.10144826  0.50000000       0.002
   0.09661739  0.09661739  0.50000000       0.002
   0.09178652  0.09178652  0.50000000       0.002
   0.08695565  0.08695565  0.50000000       0.002
   0.08212478  0.08212478  0.50000000       0.002
   0.07729391  0.07729391  0.50000000       0.002
   0.07246304  0.07246304  0.50000000       0.002
   0.06763217  0.06763217  0.50000000       0.002
   0.06280130  0.06280130  0.50000000       0.002
   0.05797043  0.05797043  0.50000000       0.002
   0.05313957  0.05313957  0.50000000       0.002
   0.04830870  0.04830870  0.50000000       0.002
   0.04347783  0.04347783  0.50000000       0.002
   0.03864696  0.03864696  0.50000000       0.002
   0.03381609  0.03381609  0.50000000       0.002
   0.02898522  0.02898522  0.50000000       0.002
   0.02415435  0.02415435  0.50000000       0.002
   0.01932348  0.01932348  0.50000000       0.002
   0.01449261  0.01449261  0.50000000       0.002
   0.00966174  0.00966174  0.50000000       0.002
   0.00483087  0.00483087  0.50000000       0.002
   0.00000000  0.00000000  0.50000000       0.002
 
 position of ions in fractional coordinates (direct lattice) 
   0.66666702  0.33333299  0.49883860
   0.33333298  0.66666702  0.99883865
   0.66666702  0.33333299  0.87616137
   0.33333298  0.66666702  0.37616137
 
 position of ions in cartesian coordinates  (Angst):
   1.53493529  0.88619346  2.49138618
  -0.00000161  1.77238968  4.98857304
   1.53493529  0.88619346  4.37587694
  -0.00000161  1.77238968  1.87869031
 


--------------------------------------------------------------------------------------------------------


 k-point  1 :   0.0000 0.0000 0.0000  plane waves:    1039
 k-point  2 :   0.0072 0.0000 0.0000  plane waves:    1051
 k-point  3 :   0.0145 0.0000 0.0000  plane waves:    1055
 k-point  4 :   0.0217 0.0000 0.0000  plane waves:    1059
 k-point  5 :   0.0290 0.0000 0.0000  plane waves:    1059
 k-point  6 :   0.0362 0.0000 0.0000  plane waves:    1059
 k-point  7 :   0.0435 0.0000 0.0000  plane waves:    1059
 k-point  8 :   0.0507 0.0000 0.0000  plane waves:    1059
 k-point  9 :   0.0580 0.0000 0.0000  plane waves:    1057
 k-point 10 :   0.0652 0.0000 0.0000  plane waves:    1053
 k-point 11 :   0.0725 0.0000 0.0000  plane waves:    1053
 k-point 12 :   0.0797 0.0000 0.0000  plane waves:    1053
 k-point 13 :   0.0870 0.0000 0.0000  plane waves:    1053
 k-point 14 :   0.0942 0.0000 0.0000  plane waves:    1053
 k-point 15 :   0.1014 0.0000 0.0000  plane waves:    1047
 k-point 16 :   0.1087 0.0000 0.0000  plane waves:    1047
 k-point 17 :   0.1159 0.0000 0.0000  plane waves:    1047
 k-point 18 :   0.1232 0.0000 0.0000  plane waves:    1047
 k-point 19 :   0.1304 0.0000 0.0000  plane waves:    1047
 k-point 20 :   0.1377 0.0000 0.0000  plane waves:    1047
 k-point 21 :   0.1449 0.0000 0.0000  plane waves:    1043
 k-point 22 :   0.1522 0.0000 0.0000  plane waves:    1039
 k-point 23 :   0.1594 0.0000 0.0000  plane waves:    1040
 k-point 24 :   0.1667 0.0000 0.0000  plane waves:    1040
 k-point 25 :   0.1739 0.0000 0.0000  plane waves:    1040
 k-point 26 :   0.1812 0.0000 0.0000  plane waves:    1040
 k-point 27 :   0.1884 0.0000 0.0000  plane waves:    1042
 k-point 28 :   0.1957 0.0000 0.0000  plane waves:    1038
 k-point 29 :   0.2029 0.0000 0.0000  plane waves:    1038
 k-point 30 :   0.2101 0.0000 0.0000  plane waves:    1034
 k-point 31 :   0.2174 0.0000 0.0000  plane waves:    1034
 k-point 32 :   0.2246 0.0000 0.0000  plane waves:    1030
 k-point 33 :   0.2319 0.0000 0.0000  plane waves:    1030
 k-point 34 :   0.2391 0.0000 0.0000  plane waves:    1030
 k-point 35 :   0.2464 0.0000 0.0000  plane waves:    1026
 k-point 36 :   0.2536 0.0000 0.0000  plane waves:    1026
 k-point 37 :   0.2609 0.0000 0.0000  plane waves:    1026
 k-point 38 :   0.2681 0.0000 0.0000  plane waves:    1024
 k-point 39 :   0.2754 0.0000 0.0000  plane waves:    1024
 k-point 40 :   0.2826 0.0000 0.0000  plane waves:    1024
 k-point 41 :   0.2899 0.0000 0.0000  plane waves:    1024
 k-point 42 :   0.2971 0.0000 0.0000  plane waves:    1024
 k-point 43 :   0.3043 0.0000 0.0000  plane waves:    1024
 k-point 44 :   0.3116 0.0000 0.0000  plane waves:    1024
 k-point 45 :   0.3188 0.0000 0.0000  plane waves:    1022
 k-point 46 :   0.3261 0.0000 0.0000  plane waves:    1024
 k-point 47 :   0.3333 0.0000 0.0000  plane waves:    1024
 k-point 48 :   0.3406 0.0000 0.0000  plane waves:    1028
 k-point 49 :   0.3478 0.0000 0.0000  plane waves:    1028
 k-point 50 :   0.3551 0.0000 0.0000  plane waves:    1028
 k-point 51 :   0.3623 0.0000 0.0000  plane waves:    1032
 k-point 52 :   0.3696 0.0000 0.0000  plane waves:    1032
 k-point 53 :   0.3768 0.0000 0.0000  plane waves:    1032
 k-point 54 :   0.3841 0.0000 0.0000  plane waves:    1032
 k-point 55 :   0.3913 0.0000 0.0000  plane waves:    1034
 k-point 56 :   0.3986 0.0000 0.0000  plane waves:    1038
 k-point 57 :   0.4058 0.0000 0.0000  plane waves:    1030
 k-point 58 :   0.4130 0.0000 0.0000  plane waves:    1032
 k-point 59 :   0.4203 0.0000 0.0000  plane waves:    1032
 k-point 60 :   0.4275 0.0000 0.0000  plane waves:    1034
 k-point 61 :   0.4348 0.0000 0.0000  plane waves:    1038
 k-point 62 :   0.4420 0.0000 0.0000  plane waves:    1038
 k-point 63 :   0.4493 0.0000 0.0000  plane waves:    1042
 k-point 64 :   0.4565 0.0000 0.0000  plane waves:    1038
 k-point 65 :   0.4638 0.0000 0.0000  plane waves:    1038
 k-point 66 :   0.4710 0.0000 0.0000  plane waves:    1038
 k-point 67 :   0.4783 0.0000 0.0000  plane waves:    1036
 k-point 68 :   0.4855 0.0000 0.0000  plane waves:    1036
 k-point 69 :   0.4928 0.0000 0.0000  plane waves:    1036
 k-point 70 :   0.5000 0.0000 0.0000  plane waves:    1032
 k-point 71 :   0.5000 0.0000 0.0000  plane waves:    1032
 k-point 72 :   0.4976 0.0048 0.0000  plane waves:    1032
 k-point 73 :   0.4952 0.0097 0.0000  plane waves:    1032
 k-point 74 :   0.4928 0.0145 0.0000  plane waves:    1036
 k-point 75 :   0.4903 0.0193 0.0000  plane waves:    1036
 k-point 76 :   0.4879 0.0242 0.0000  plane waves:    1036
 k-point 77 :   0.4855 0.0290 0.0000  plane waves:    1034
 k-point 78 :   0.4831 0.0338 0.0000  plane waves:    1034
 k-point 79 :   0.4807 0.0386 0.0000  plane waves:    1030
 k-point 80 :   0.4783 0.0435 0.0000  plane waves:    1030
 k-point 81 :   0.4758 0.0483 0.0000  plane waves:    1030
 k-point 82 :   0.4734 0.0531 0.0000  plane waves:    1034
 k-point 83 :   0.4710 0.0580 0.0000  plane waves:    1034
 k-point 84 :   0.4686 0.0628 0.0000  plane waves:    1030
 k-point 85 :   0.4662 0.0676 0.0000  plane waves:    1030
 k-point 86 :   0.4638 0.0725 0.0000  plane waves:    1030
 k-point 87 :   0.4614 0.0773 0.0000  plane waves:    1030
 k-point 88 :   0.4589 0.0821 0.0000  plane waves:    1028
 k-point 89 :   0.4565 0.0870 0.0000  plane waves:    1028
 k-point 90 :   0.4541 0.0918 0.0000  plane waves:    1032
 k-point 91 :   0.4517 0.0966 0.0000  plane waves:    1032
 k-point 92 :   0.4493 0.1014 0.0000  plane waves:    1030
 k-point 93 :   0.4469 0.1063 0.0000  plane waves:    1034
 k-point 94 :   0.4444 0.1111 0.0000  plane waves:    1034
 k-point 95 :   0.4420 0.1159 0.0000  plane waves:    1034
 k-point 96 :   0.4396 0.1208 0.0000  plane waves:    1026
 k-point 97 :   0.4372 0.1256 0.0000  plane waves:    1026
 k-point 98 :   0.4348 0.1304 0.0000  plane waves:    1028
 k-point 99 :   0.4324 0.1353 0.0000  plane waves:    1028
 k-point ** :   0.4300 0.1401 0.0000  plane waves:    1028
 k-point ** :   0.4275 0.1449 0.0000  plane waves:    1024
 k-point ** :   0.4251 0.1498 0.0000  plane waves:    1026
 k-point ** :   0.4227 0.1546 0.0000  plane waves:    1026
 k-point ** :   0.4203 0.1594 0.0000  plane waves:    1022
 k-point ** :   0.4179 0.1642 0.0000  plane waves:    1024
 k-point ** :   0.4155 0.1691 0.0000  plane waves:    1024
 k-point ** :   0.4130 0.1739 0.0000  plane waves:    1020
 k-point ** :   0.4106 0.1787 0.0000  plane waves:    1024
 k-point ** :   0.4082 0.1836 0.0000  plane waves:    1024
 k-point ** :   0.4058 0.1884 0.0000  plane waves:    1024
 k-point ** :   0.4034 0.1932 0.0000  plane waves:    1024
 k-point ** :   0.4010 0.1981 0.0000  plane waves:    1024
 k-point ** :   0.3985 0.2029 0.0000  plane waves:    1024
 k-point ** :   0.3961 0.2077 0.0000  plane waves:    1024
 k-point ** :   0.3937 0.2126 0.0000  plane waves:    1024
 k-point ** :   0.3913 0.2174 0.0000  plane waves:    1024
 k-point ** :   0.3889 0.2222 0.0000  plane waves:    1024
 k-point ** :   0.3865 0.2271 0.0000  plane waves:    1024
 k-point ** :   0.3841 0.2319 0.0000  plane waves:    1024
 k-point ** :   0.3816 0.2367 0.0000  plane waves:    1024
 k-point ** :   0.3792 0.2415 0.0000  plane waves:    1024
 k-point ** :   0.3768 0.2464 0.0000  plane waves:    1024
 k-point ** :   0.3744 0.2512 0.0000  plane waves:    1028
 k-point ** :   0.3720 0.2560 0.0000  plane waves:    1028
 k-point ** :   0.3696 0.2609 0.0000  plane waves:    1032
 k-point ** :   0.3671 0.2657 0.0000  plane waves:    1036
 k-point ** :   0.3647 0.2705 0.0000  plane waves:    1036
 k-point ** :   0.3623 0.2754 0.0000  plane waves:    1036
 k-point ** :   0.3599 0.2802 0.0000  plane waves:    1036
 k-point ** :   0.3575 0.2850 0.0000  plane waves:    1034
 k-point ** :   0.3551 0.2899 0.0000  plane waves:    1034
 k-point ** :   0.3527 0.2947 0.0000  plane waves:    1034
 k-point ** :   0.3502 0.2995 0.0000  plane waves:    1034
 k-point ** :   0.3478 0.3043 0.0000  plane waves:    1034
 k-point ** :   0.3454 0.3092 0.0000  plane waves:    1034
 k-point ** :   0.3430 0.3140 0.0000  plane waves:    1034
 k-point ** :   0.3406 0.3188 0.0000  plane waves:    1034
 k-point ** :   0.3382 0.3237 0.0000  plane waves:    1044
 k-point ** :   0.3357 0.3285 0.0000  plane waves:    1050
 k-point ** :   0.3333 0.3333 0.0000  plane waves:    1050
 k-point ** :   0.3333 0.3333 0.0000  plane waves:    1050
 k-point ** :   0.3285 0.3285 0.0000  plane waves:    1046
 k-point ** :   0.3237 0.3237 0.0000  plane waves:    1038
 k-point ** :   0.3188 0.3188 0.0000  plane waves:    1034
 k-point ** :   0.3140 0.3140 0.0000  plane waves:    1034
 k-point ** :   0.3092 0.3092 0.0000  plane waves:    1034
 k-point ** :   0.3043 0.3043 0.0000  plane waves:    1030
 k-point ** :   0.2995 0.2995 0.0000  plane waves:    1030
 k-point ** :   0.2947 0.2947 0.0000  plane waves:    1030
 k-point ** :   0.2899 0.2899 0.0000  plane waves:    1030
 k-point ** :   0.2850 0.2850 0.0000  plane waves:    1026
 k-point ** :   0.2802 0.2802 0.0000  plane waves:    1032
 k-point ** :   0.2754 0.2754 0.0000  plane waves:    1028
 k-point ** :   0.2705 0.2705 0.0000  plane waves:    1028
[...]
 k-point ** :   0.2077 0.2077 0.0000  plane waves:    1036
 k-point ** :   0.2029 0.2029 0.0000  plane waves:    1040
 k-point ** :   0.1981 0.1981 0.0000  plane waves:    1045
 k-point ** :   0.1932 0.1932 0.0000  plane waves:    1045
 k-point ** :   0.1884 0.1884 0.0000  plane waves:    1045
 k-point ** :   0.1836 0.1836 0.0000  plane waves:    1041
 k-point ** :   0.1787 0.1787 0.0000  plane waves:    1033
 k-point ** :   0.1739 0.1739 0.0000  plane waves:    1033
 k-point ** :   0.1691 0.1691 0.0000  plane waves:    1033
 k-point ** :   0.1642 0.1642 0.0000  plane waves:    1033
 k-point ** :   0.1594 0.1594 0.0000  plane waves:    1035
 k-point ** :   0.1546 0.1546 0.0000  plane waves:    1035
 k-point ** :   0.1498 0.1498 0.0000  plane waves:    1035
 k-point ** :   0.1449 0.1449 0.0000  plane waves:    1035
 k-point ** :   0.1401 0.1401 0.0000  plane waves:    1039
 k-point ** :   0.1353 0.1353 0.0000  plane waves:    1035
 k-point ** :   0.1304 0.1304 0.0000  plane waves:    1035
 k-point ** :   0.1256 0.1256 0.0000  plane waves:    1039
 k-point ** :   0.1208 0.1208 0.0000  plane waves:    1035
 k-point ** :   0.1159 0.1159 0.0000  plane waves:    1035
 k-point ** :   0.1111 0.1111 0.0000  plane waves:    1035
 k-point ** :   0.1063 0.1063 0.0000  plane waves:    1039
 k-point ** :   0.1014 0.1014 0.0000  plane waves:    1039
 k-point ** :   0.0966 0.0966 0.0000  plane waves:    1039
 k-point ** :   0.0918 0.0918 0.0000  plane waves:    1039
 k-point ** :   0.0870 0.0870 0.0000  plane waves:    1047
 k-point ** :   0.0821 0.0821 0.0000  plane waves:    1047
 k-point ** :   0.0773 0.0773 0.0000  plane waves:    1047
 k-point ** :   0.0725 0.0725 0.0000  plane waves:    1047
 k-point ** :   0.0676 0.0676 0.0000  plane waves:    1047
 k-point ** :   0.0628 0.0628 0.0000  plane waves:    1051
 k-point ** :   0.0580 0.0580 0.0000  plane waves:    1051
 k-point ** :   0.0531 0.0531 0.0000  plane waves:    1051
 k-point ** :   0.0483 0.0483 0.0000  plane waves:    1051
 k-point ** :   0.0435 0.0435 0.0000  plane waves:    1051
 k-point ** :   0.0386 0.0386 0.0000  plane waves:    1051
 k-point ** :   0.0338 0.0338 0.0000  plane waves:    1055
 k-point ** :   0.0290 0.0290 0.0000  plane waves:    1059
 k-point ** :   0.0242 0.0242 0.0000  plane waves:    1063
 k-point ** :   0.0193 0.0193 0.0000  plane waves:    1063
 k-point ** :   0.0145 0.0145 0.0000  plane waves:    1059
 k-point ** :   0.0097 0.0097 0.0000  plane waves:    1059
 k-point ** :   0.0048 0.0048 0.0000  plane waves:    1055
 k-point ** :   0.0000 0.0000 0.0000  plane waves:    1039
 k-point ** :   0.0000 0.0000 0.0000  plane waves:    1039
 k-point ** :   0.0000 0.0000 0.0072  plane waves:    1039
 k-point ** :   0.0000 0.0000 0.0145  plane waves:    1039
 k-point ** :   0.0000 0.0000 0.0217  plane waves:    1051
 k-point ** :   0.0000 0.0000 0.0290  plane waves:    1051
 k-point ** :   0.0000 0.0000 0.0362  plane waves:    1063
 k-point ** :   0.0000 0.0000 0.0435  plane waves:    1063
 k-point ** :   0.0000 0.0000 0.0507  plane waves:    1063
 k-point ** :   0.0000 0.0000 0.0580  plane waves:    1063
 k-point ** :   0.0000 0.0000 0.0652  plane waves:    1063
 k-point ** :   0.0000 0.0000 0.0725  plane waves:    1063
 k-point ** :   0.0000 0.0000 0.0797  plane waves:    1063
 k-point ** :   0.0000 0.0000 0.0870  plane waves:    1051
 k-point ** :   0.0000 0.0000 0.0942  plane waves:    1057
 k-point ** :   0.0000 0.0000 0.1014  plane waves:    1057
 k-point ** :   0.0000 0.0000 0.1087  plane waves:    1056
 k-point ** :   0.0000 0.0000 0.1159  plane waves:    1056
 k-point ** :   0.0000 0.0000 0.1232  plane waves:    1056
 k-point ** :   0.0000 0.0000 0.1304  plane waves:    1056
 k-point ** :   0.0000 0.0000 0.1377  plane waves:    1056
 k-point ** :   0.0000 0.0000 0.1449  plane waves:    1050
 k-point ** :   0.0000 0.0000 0.1522  plane waves:    1050
 k-point ** :   0.0000 0.0000 0.1594  plane waves:    1044
 k-point ** :   0.0000 0.0000 0.1667  plane waves:    1044
 k-point ** :   0.0000 0.0000 0.1739  plane waves:    1044
 k-point ** :   0.0000 0.0000 0.1812  plane waves:    1044
 k-point ** :   0.0000 0.0000 0.1884  plane waves:    1044
 k-point ** :   0.0000 0.0000 0.1957  plane waves:    1044
 k-point ** :   0.0000 0.0000 0.2029  plane waves:    1044
 k-point ** :   0.0000 0.0000 0.2101  plane waves:    1044
 k-point ** :   0.0000 0.0000 0.2174  plane waves:    1044
 k-point ** :   0.0000 0.0000 0.2246  plane waves:    1044
 k-point ** :   0.0000 0.0000 0.2319  plane waves:    1044
 k-point ** :   0.0000 0.0000 0.2391  plane waves:    1044
 k-point ** :   0.0000 0.0000 0.2464  plane waves:    1044
 k-point ** :   0.0000 0.0000 0.2536  plane waves:    1044
 k-point ** :   0.0000 0.0000 0.2609  plane waves:    1044
 k-point ** :   0.0000 0.0000 0.2681  plane waves:    1044
 k-point ** :   0.0000 0.0000 0.2754  plane waves:    1044
 k-point ** :   0.0000 0.0000 0.2826  plane waves:    1044
 k-point ** :   0.0000 0.0000 0.2899  plane waves:    1044
 k-point ** :   0.0000 0.0000 0.2971  plane waves:    1038
 k-point ** :   0.0000 0.0000 0.3043  plane waves:    1038
 k-point ** :   0.0000 0.0000 0.3116  plane waves:    1038
 k-point ** :   0.0000 0.0000 0.3188  plane waves:    1038
 k-point ** :   0.0000 0.0000 0.3261  plane waves:    1038
 k-point ** :   0.0000 0.0000 0.3333  plane waves:    1038
 k-point ** :   0.0000 0.0000 0.3406  plane waves:    1038
 k-point ** :   0.0000 0.0000 0.3478  plane waves:    1038
 k-point ** :   0.0000 0.0000 0.3551  plane waves:    1038
 k-point ** :   0.0000 0.0000 0.3623  plane waves:    1038
 k-point ** :   0.0000 0.0000 0.3696  plane waves:    1032
 k-point ** :   0.0000 0.0000 0.3768  plane waves:    1044
 k-point ** :   0.0000 0.0000 0.3841  plane waves:    1044
 k-point ** :   0.0000 0.0000 0.3913  plane waves:    1044
 k-point ** :   0.0000 0.0000 0.3986  plane waves:    1044
 k-point ** :   0.0000 0.0000 0.4058  plane waves:    1044
 k-point ** :   0.0000 0.0000 0.4130  plane waves:    1044
 k-point ** :   0.0000 0.0000 0.4203  plane waves:    1044
 k-point ** :   0.0000 0.0000 0.4275  plane waves:    1044
 k-point ** :   0.0000 0.0000 0.4348  plane waves:    1044
 k-point ** :   0.0000 0.0000 0.4420  plane waves:    1044
 k-point ** :   0.0000 0.0000 0.4493  plane waves:    1044
 k-point ** :   0.0000 0.0000 0.4565  plane waves:    1044
 k-point ** :   0.0000 0.0000 0.4638  plane waves:    1044
 k-point ** :   0.0000 0.0000 0.4710  plane waves:    1044
 k-point ** :   0.0000 0.0000 0.4783  plane waves:    1044
 k-point ** :   0.0000 0.0000 0.4855  plane waves:    1044
 k-point ** :   0.0000 0.0000 0.4928  plane waves:    1044
 k-point ** :   0.0000 0.0000 0.5000  plane waves:    1050
 k-point ** :   0.0000 0.0000 0.5000  plane waves:    1050
 k-point ** :   0.0072 0.0000 0.5000  plane waves:    1050
 k-point ** :   0.0145 0.0000 0.5000  plane waves:    1046
 k-point ** :   0.0217 0.0000 0.5000  plane waves:    1046
 k-point ** :   0.0290 0.0000 0.5000  plane waves:    1046
 k-point ** :   0.0362 0.0000 0.5000  plane waves:    1046
 k-point ** :   0.0435 0.0000 0.5000  plane waves:    1046
 k-point ** :   0.0507 0.0000 0.5000  plane waves:    1046
 k-point ** :   0.0580 0.0000 0.5000  plane waves:    1046
 k-point ** :   0.0652 0.0000 0.5000  plane waves:    1046
 k-point ** :   0.0725 0.0000 0.5000  plane waves:    1046
 k-point ** :   0.0797 0.0000 0.5000  plane waves:    1046
 k-point ** :   0.0870 0.0000 0.5000  plane waves:    1046
 k-point ** :   0.0942 0.0000 0.5000  plane waves:    1046
 k-point ** :   0.1014 0.0000 0.5000  plane waves:    1046
 k-point ** :   0.1087 0.0000 0.5000  plane waves:    1046
 k-point ** :   0.1159 0.0000 0.5000  plane waves:    1046
 k-point ** :   0.1232 0.0000 0.5000  plane waves:    1042
 k-point ** :   0.1304 0.0000 0.5000  plane waves:    1038
 k-point ** :   0.1377 0.0000 0.5000  plane waves:    1036
 k-point ** :   0.1449 0.0000 0.5000  plane waves:    1032
 k-point ** :   0.1522 0.0000 0.5000  plane waves:    1028
 k-point ** :   0.1594 0.0000 0.5000  plane waves:    1032
 k-point ** :   0.1667 0.0000 0.5000  plane waves:    1034
 k-point ** :   0.1739 0.0000 0.5000  plane waves:    1038
 k-point ** :   0.1812 0.0000 0.5000  plane waves:    1038
 k-point ** :   0.1884 0.0000 0.5000  plane waves:    1042
 k-point ** :   0.1957 0.0000 0.5000  plane waves:    1042
 k-point ** :   0.2029 0.0000 0.5000  plane waves:    1038
 k-point ** :   0.2101 0.0000 0.5000  plane waves:    1038
 k-point ** :   0.2174 0.0000 0.5000  plane waves:    1036
 k-point ** :   0.2246 0.0000 0.5000  plane waves:    1042
 k-point ** :   0.2319 0.0000 0.5000  plane waves:    1038
 k-point ** :   0.2391 0.0000 0.5000  plane waves:    1038
 k-point ** :   0.2464 0.0000 0.5000  plane waves:    1038
 k-point ** :   0.2536 0.0000 0.5000  plane waves:    1040
 k-point ** :   0.2609 0.0000 0.5000  plane waves:    1040
 k-point ** :   0.2681 0.0000 0.5000  plane waves:    1034
 k-point ** :   0.2754 0.0000 0.5000  plane waves:    1034
 k-point ** :   0.2826 0.0000 0.5000  plane waves:    1034
 k-point ** :   0.2899 0.0000 0.5000  plane waves:    1034
 k-point ** :   0.2971 0.0000 0.5000  plane waves:    1034
 k-point ** :   0.3043 0.0000 0.5000  plane waves:    1034
 k-point ** :   0.3116 0.0000 0.5000  plane waves:    1034
 k-point ** :   0.3188 0.0000 0.5000  plane waves:    1038
 k-point ** :   0.3261 0.0000 0.5000  plane waves:    1038
 k-point ** :   0.3333 0.0000 0.5000  plane waves:    1034
 k-point ** :   0.3406 0.0000 0.5000  plane waves:    1040
 k-point ** :   0.3478 0.0000 0.5000  plane waves:    1040
 k-point ** :   0.3551 0.0000 0.5000  plane waves:    1040
 k-point ** :   0.3623 0.0000 0.5000  plane waves:    1036
 k-point ** :   0.3696 0.0000 0.5000  plane waves:    1036
 k-point ** :   0.3768 0.0000 0.5000  plane waves:    1040
 k-point ** :   0.3841 0.0000 0.5000  plane waves:    1036
 k-point ** :   0.3913 0.0000 0.5000  plane waves:    1036
 k-point ** :   0.3986 0.0000 0.5000  plane waves:    1030
 k-point ** :   0.4058 0.0000 0.5000  plane waves:    1026
 k-point ** :   0.4130 0.0000 0.5000  plane waves:    1026
 k-point ** :   0.4203 0.0000 0.5000  plane waves:    1030
 k-point ** :   0.4275 0.0000 0.5000  plane waves:    1030
 k-point ** :   0.4348 0.0000 0.5000  plane waves:    1030
 k-point ** :   0.4420 0.0000 0.5000  plane waves:    1030
 k-point ** :   0.4493 0.0000 0.5000  plane waves:    1030
 k-point ** :   0.4565 0.0000 0.5000  plane waves:    1022
 k-point ** :   0.4638 0.0000 0.5000  plane waves:    1022
 k-point ** :   0.4710 0.0000 0.5000  plane waves:    1022
 k-point ** :   0.4783 0.0000 0.5000  plane waves:    1024
 k-point ** :   0.4855 0.0000 0.5000  plane waves:    1028
 k-point ** :   0.4928 0.0000 0.5000  plane waves:    1032
 k-point ** :   0.5000 0.0000 0.5000  plane waves:    1032
 k-point ** :   0.5000 0.0000 0.5000  plane waves:    1032
 k-point ** :   0.4976 0.0048 0.5000  plane waves:    1032
 k-point ** :   0.4952 0.0097 0.5000  plane waves:    1032
 k-point ** :   0.4928 0.0145 0.5000  plane waves:    1028
 k-point ** :   0.4903 0.0193 0.5000  plane waves:    1028
 k-point ** :   0.4879 0.0242 0.5000  plane waves:    1024
 k-point ** :   0.4855 0.0290 0.5000  plane waves:    1024
 k-point ** :   0.4831 0.0338 0.5000  plane waves:    1024
 k-point ** :   0.4807 0.0386 0.5000  plane waves:    1020
 k-point ** :   0.4783 0.0435 0.5000  plane waves:    1024
 k-point ** :   0.4758 0.0483 0.5000  plane waves:    1024
 k-point ** :   0.4734 0.0531 0.5000  plane waves:    1024
 k-point ** :   0.4710 0.0580 0.5000  plane waves:    1020
 k-point ** :   0.4686 0.0628 0.5000  plane waves:    1020
 k-point ** :   0.4662 0.0676 0.5000  plane waves:    1020
 k-point ** :   0.4638 0.0725 0.5000  plane waves:    1020
 k-point ** :   0.4614 0.0773 0.5000  plane waves:    1024
 k-point ** :   0.4589 0.0821 0.5000  plane waves:    1024
 k-point ** :   0.4565 0.0870 0.5000  plane waves:    1028
 k-point ** :   0.4541 0.0918 0.5000  plane waves:    1024
 k-point ** :   0.4517 0.0966 0.5000  plane waves:    1024
 k-point ** :   0.4493 0.1014 0.5000  plane waves:    1024
 k-point ** :   0.4469 0.1063 0.5000  plane waves:    1024
 k-point ** :   0.4444 0.1111 0.5000  plane waves:    1020
 k-point ** :   0.4420 0.1159 0.5000  plane waves:    1024
 k-point ** :   0.4396 0.1208 0.5000  plane waves:    1024
 k-point ** :   0.4372 0.1256 0.5000  plane waves:    1028
 k-point ** :   0.4348 0.1304 0.5000  plane waves:    1028
 k-point ** :   0.4324 0.1353 0.5000  plane waves:    1030
 k-point ** :   0.4300 0.1401 0.5000  plane waves:    1042
 k-point ** :   0.4275 0.1449 0.5000  plane waves:    1042
 k-point ** :   0.4251 0.1498 0.5000  plane waves:    1038
 k-point ** :   0.4227 0.1546 0.5000  plane waves:    1038
 k-point ** :   0.4203 0.1594 0.5000  plane waves:    1038
 k-point ** :   0.4179 0.1642 0.5000  plane waves:    1038
 k-point ** :   0.4155 0.1691 0.5000  plane waves:    1032
 k-point ** :   0.4130 0.1739 0.5000  plane waves:    1032
 k-point ** :   0.4106 0.1787 0.5000  plane waves:    1030
 k-point ** :   0.4082 0.1836 0.5000  plane waves:    1030
 k-point ** :   0.4058 0.1884 0.5000  plane waves:    1030
 k-point ** :   0.4034 0.1932 0.5000  plane waves:    1034
 k-point ** :   0.4010 0.1981 0.5000  plane waves:    1034
 k-point ** :   0.3985 0.2029 0.5000  plane waves:    1034
 k-point ** :   0.3961 0.2077 0.5000  plane waves:    1034
 k-point ** :   0.3937 0.2126 0.5000  plane waves:    1034
 k-point ** :   0.3913 0.2174 0.5000  plane waves:    1034
 k-point ** :   0.3889 0.2222 0.5000  plane waves:    1034
 k-point ** :   0.3865 0.2271 0.5000  plane waves:    1034
 k-point ** :   0.3841 0.2319 0.5000  plane waves:    1034
 k-point ** :   0.3816 0.2367 0.5000  plane waves:    1034
 k-point ** :   0.3792 0.2415 0.5000  plane waves:    1042
 k-point ** :   0.3768 0.2464 0.5000  plane waves:    1042
 k-point ** :   0.3744 0.2512 0.5000  plane waves:    1042
 k-point ** :   0.3720 0.2560 0.5000  plane waves:    1042
 k-point ** :   0.3696 0.2609 0.5000  plane waves:    1038
 k-point ** :   0.3671 0.2657 0.5000  plane waves:    1038
 k-point ** :   0.3647 0.2705 0.5000  plane waves:    1038
 k-point ** :   0.3623 0.2754 0.5000  plane waves:    1042
 k-point ** :   0.3599 0.2802 0.5000  plane waves:    1042
 k-point ** :   0.3575 0.2850 0.5000  plane waves:    1042
 k-point ** :   0.3551 0.2899 0.5000  plane waves:    1038
 k-point ** :   0.3527 0.2947 0.5000  plane waves:    1038
 k-point ** :   0.3502 0.2995 0.5000  plane waves:    1038
 k-point ** :   0.3478 0.3043 0.5000  plane waves:    1038
 k-point ** :   0.3454 0.3092 0.5000  plane waves:    1038
 k-point ** :   0.3430 0.3140 0.5000  plane waves:    1038
 k-point ** :   0.3406 0.3188 0.5000  plane waves:    1038
 k-point ** :   0.3382 0.3237 0.5000  plane waves:    1038
 k-point ** :   0.3357 0.3285 0.5000  plane waves:    1038
 k-point ** :   0.3333 0.3333 0.5000  plane waves:    1038
 k-point ** :   0.3333 0.3333 0.5000  plane waves:    1038
 k-point ** :   0.3285 0.3285 0.5000  plane waves:    1038
 k-point ** :   0.3237 0.3237 0.5000  plane waves:    1038
 k-point ** :   0.3188 0.3188 0.5000  plane waves:    1038
 k-point ** :   0.3140 0.3140 0.5000  plane waves:    1038
 k-point ** :   0.3092 0.3092 0.5000  plane waves:    1042
 k-point ** :   0.3043 0.3043 0.5000  plane waves:    1040
 k-point ** :   0.2995 0.2995 0.5000  plane waves:    1036
 k-point ** :   0.2947 0.2947 0.5000  plane waves:    1036
 k-point ** :   0.2899 0.2899 0.5000  plane waves:    1032
 k-point ** :   0.2850 0.2850 0.5000  plane waves:    1028
 k-point ** :   0.2802 0.2802 0.5000  plane waves:    1028
 k-point ** :   0.2754 0.2754 0.5000  plane waves:    1036
 k-point ** :   0.2705 0.2705 0.5000  plane waves:    1036
 k-point ** :   0.2657 0.2657 0.5000  plane waves:    1032
 k-point ** :   0.2609 0.2609 0.5000  plane waves:    1032
 k-point ** :   0.2560 0.2560 0.5000  plane waves:    1036
 k-point ** :   0.2512 0.2512 0.5000  plane waves:    1036
 k-point ** :   0.2464 0.2464 0.5000  plane waves:    1036
 k-point ** :   0.2415 0.2415 0.5000  plane waves:    1040
 k-point ** :   0.2367 0.2367 0.5000  plane waves:    1038
 k-point ** :   0.2319 0.2319 0.5000  plane waves:    1034
 k-point ** :   0.2271 0.2271 0.5000  plane waves:    1032
 k-point ** :   0.2222 0.2222 0.5000  plane waves:    1028
 k-point ** :   0.2174 0.2174 0.5000  plane waves:    1028
 k-point ** :   0.2126 0.2126 0.5000  plane waves:    1028
 k-point ** :   0.2077 0.2077 0.5000  plane waves:    1028
 k-point ** :   0.2029 0.2029 0.5000  plane waves:    1026
 k-point ** :   0.1981 0.1981 0.5000  plane waves:    1034
 k-point ** :   0.1932 0.1932 0.5000  plane waves:    1034
 k-point ** :   0.1884 0.1884 0.5000  plane waves:    1038
 k-point ** :   0.1836 0.1836 0.5000  plane waves:    1038
 k-point ** :   0.1787 0.1787 0.5000  plane waves:    1034
 k-point ** :   0.1739 0.1739 0.5000  plane waves:    1034
 k-point ** :   0.1691 0.1691 0.5000  plane waves:    1030
 k-point ** :   0.1642 0.1642 0.5000  plane waves:    1030
 k-point ** :   0.1594 0.1594 0.5000  plane waves:    1034
 k-point ** :   0.1546 0.1546 0.5000  plane waves:    1042
 k-point ** :   0.1498 0.1498 0.5000  plane waves:    1046
 k-point ** :   0.1449 0.1449 0.5000  plane waves:    1042
 k-point ** :   0.1401 0.1401 0.5000  plane waves:    1046
 k-point ** :   0.1353 0.1353 0.5000  plane waves:    1046
 k-point ** :   0.1304 0.1304 0.5000  plane waves:    1046
 k-point ** :   0.1256 0.1256 0.5000  plane waves:    1042
 k-point ** :   0.1208 0.1208 0.5000  plane waves:    1046
 k-point ** :   0.1159 0.1159 0.5000  plane waves:    1046
 k-point ** :   0.1111 0.1111 0.5000  plane waves:    1046
 k-point ** :   0.1063 0.1063 0.5000  plane waves:    1046
 k-point ** :   0.1014 0.1014 0.5000  plane waves:    1046
 k-point ** :   0.0966 0.0966 0.5000  plane waves:    1046
 k-point ** :   0.0918 0.0918 0.5000  plane waves:    1042
 k-point ** :   0.0870 0.0870 0.5000  plane waves:    1046
 k-point ** :   0.0821 0.0821 0.5000  plane waves:    1034
 k-point ** :   0.0773 0.0773 0.5000  plane waves:    1034
 k-point ** :   0.0725 0.0725 0.5000  plane waves:    1034
 k-point ** :   0.0676 0.0676 0.5000  plane waves:    1034
 k-point ** :   0.0628 0.0628 0.5000  plane waves:    1034
 k-point ** :   0.0580 0.0580 0.5000  plane waves:    1042
 k-point ** :   0.0531 0.0531 0.5000  plane waves:    1042
 k-point ** :   0.0483 0.0483 0.5000  plane waves:    1042
 k-point ** :   0.0435 0.0435 0.5000  plane waves:    1046
 k-point ** :   0.0386 0.0386 0.5000  plane waves:    1044
 k-point ** :   0.0338 0.0338 0.5000  plane waves:    1044
 k-point ** :   0.0290 0.0290 0.5000  plane waves:    1044
 k-point ** :   0.0242 0.0242 0.5000  plane waves:    1044
 k-point ** :   0.0193 0.0193 0.5000  plane waves:    1044
 k-point ** :   0.0145 0.0145 0.5000  plane waves:    1044
 k-point ** :   0.0097 0.0097 0.5000  plane waves:    1044
 k-point ** :   0.0048 0.0048 0.5000  plane waves:    1048
 k-point ** :   0.0000 0.0000 0.5000  plane waves:    1050

 maximum and minimum number of plane-waves per node :       280      241

 maximum number of plane-waves:      1063
 maximum index in each direction: 
   IXMAX=    5   IYMAX=    5   IZMAX=    9
   IXMIN=   -6   IYMIN=   -5   IZMIN=   -9


 parallel 3D FFT for wavefunctions:
    minimum data exchange during FFTs selected (reduces bandwidth)
 parallel 3D FFT for charge:
    minimum data exchange during FFTs selected (reduces bandwidth)


 total amount of memory used by VASP MPI-rank0    97504. kBytes
=======================================================================

   base      :      30000. kBytes
   nonl-proj :      39531. kBytes
   fftplans  :        866. kBytes
   grid      :       1393. kBytes
   one-center:         15. kBytes
   wavefun   :      25699. kBytes
 
     INWAV:  cpu time    0.0000: real time    0.0001
 initial charge density was supplied:
