<?xml version="1.0" encoding="ISO-8859-1"?>
<modeling>
 <generator>
  <i name="program" type="string">vasp </i>
  <i name="version" type="string">5.4.4.18Apr17-6-g9f103f2a35  </i>
  <i name="subversion" type="string">(build Jun 24 2018 22:36:06) complex            parallel </i>
  <i name="platform" type="string">LinuxIFC </i>
  <i name="date" type="string">2020 08 12 </i>
  <i name="time" type="string">14:33:18 </i>
 </generator>
 <incar>
  <i type="string" name="SYSTEM"> /net/hulk/PMD/skwon/GaN/Wurtzite/vasp/U</i>
  <i type="int" name="ISTART">     1</i>
  <i type="string" name="PREC">accurate</i>
  <i type="string" name="ALGO"> Fast</i>
  <i type="int" name="NSIM">     4</i>
  <i type="int" name="ISPIN">     1</i>
  <i type="int" name="ICHARG">    11</i>
  <i type="int" name="NELM">   200</i>
  <i type="int" name="IBRION">     2</i>
  <i name="EDIFF">      0.00000010</i>
  <i name="EDIFFG">      0.00100000</i>
  <i type="int" name="NSW">     0</i>
  <i type="int" name="ISIF">     3</i>
  <i name="ENCUT">    500.00000000</i>
  <i type="logical" name="LREAL"> F  </i>
  <i type="logical" name="LPLANE"> T  </i>
  <i type="int" name="ISMEAR">     0</i>
  <i name="SIGMA">      0.03000000</i>
  <i type="int" name="LMAXMIX">     4</i>
  <i type="logical" name="LWAVE"> F  </i>
  <i type="logical" name="LCHARG"> F  </i>
  <i type="logical" name="LVTOT"> F  </i>
  <i type="int" name="LORBIT">    11</i>
  <i type="logical" name="LSCALU"> F  </i>
  <v type="int" name="KPOINT_BSE">    -1     0     0     0</v>
  <i type="int" name="NELM">   200</i>
  <i type="string" name="GGA"> PE</i>
  <i type="logical" name="LDAU"> T  </i>
  <v type="int" name="LDAUTYPE">     2</v>
  <v type="int" name="LDAUL">     2    -1</v>
  <v name="LDAUU">      6.70000000      0.00000000</v>
  <v name="LDAUJ">      0.00000000      0.00000000</v>
  <i type="int" name="LDAUPRINT">     2</i>
 </incar>
 <structure name="primitive_cell" >
  <crystal>
   <varray name="basis" >
    <v>       3.06986737       0.00000000       0.00000000 </v>
    <v>      -1.53493368       2.65858313       0.00000000 </v>
    <v>       0.00000000       0.00000000       4.99437326 </v>
   </varray>
   <i name="volume">     40.76156532 </i>
   <varray name="rec_basis" >
    <v>       0.32574697       0.18807010       0.00000000 </v>
    <v>       0.00000000       0.37614020       0.00000000 </v>
    <v>       0.00000000       0.00000000       0.20022532 </v>
   </varray>
  </crystal>
  <varray name="positions" >
   <v>      -0.33333298       0.33333299       0.49883860 </v>
   <v>       0.33333298      -0.33333298       0.37616137 </v>
   <v>      -0.33333298       0.33333299      -0.12383863 </v>
   <v>       0.33333298      -0.33333298      -0.00116135 </v>
  </varray>
 </structure>
 <varray name="primitive_index" >
  <v type="int" >        1 </v>
  <v type="int" >        4 </v>
  <v type="int" >        3 </v>
  <v type="int" >        2 </v>
 </varray>
 <kpoints>
  <generation param="listgenerated">
   <i name="divisions" type="int">      70 </i>
   <v>       0.00000000       0.00000000       0.00000000 </v>
   <v>       0.50000000       0.00000000       0.00000000 </v>
   <v>       0.33333000       0.33333000       0.00000000 </v>
   <v>       0.00000000       0.00000000       0.00000000 </v>
   <v>       0.00000000       0.00000000       0.50000000 </v>
   <v>       0.50000000       0.00000000       0.50000000 </v>
   <v>       0.33333000       0.33333000       0.50000000 </v>
   <v>       0.00000000       0.00000000       0.50000000 </v>
  </generation>
  <varray name="kpointlist" >
   <v>       0.00000000       0.00000000       0.00000000 </v>
   <v>       0.00724638       0.00000000       0.00000000 </v>
   <v>       0.01449275       0.00000000       0.00000000 </v>
   <v>       0.02173913       0.00000000       0.00000000 </v>
   <v>       0.02898551       0.00000000       0.00000000 </v>
   <v>       0.03623188       0.00000000       0.00000000 </v>
   <v>       0.04347826       0.00000000       0.00000000 </v>
   <v>       0.05072464       0.00000000       0.00000000 </v>
   <v>       0.05797101       0.00000000       0.00000000 </v>
   <v>       0.06521739       0.00000000       0.00000000 </v>
   <v>       0.07246377       0.00000000       0.00000000 </v>
   <v>       0.07971014       0.00000000       0.00000000 </v>
   <v>       0.08695652       0.00000000       0.00000000 </v>
   <v>       0.09420290       0.00000000       0.00000000 </v>
   <v>       0.10144928       0.00000000       0.00000000 </v>
   <v>       0.10869565       0.00000000       0.00000000 </v>
   <v>       0.11594203       0.00000000       0.00000000 </v>
   <v>       0.12318841       0.00000000       0.00000000 </v>
   <v>       0.13043478       0.00000000       0.00000000 </v>
   <v>       0.13768116       0.00000000       0.00000000 </v>
   <v>       0.14492754       0.00000000       0.00000000 </v>
   <v>       0.15217391       0.00000000       0.00000000 </v>
   <v>       0.15942029       0.00000000       0.00000000 </v>
   <v>       0.16666667       0.00000000       0.00000000 </v>
   <v>       0.17391304       0.00000000       0.00000000 </v>
   <v>       0.18115942       0.00000000       0.00000000 </v>
   <v>       0.18840580       0.00000000       0.00000000 </v>
   <v>       0.19565217       0.00000000       0.00000000 </v>
   <v>       0.20289855       0.00000000       0.00000000 </v>
   <v>       0.21014493       0.00000000       0.00000000 </v>
   <v>       0.21739130       0.00000000       0.00000000 </v>
   <v>       0.22463768       0.00000000       0.00000000 </v>
   <v>       0.23188406       0.00000000       0.00000000 </v>
   <v>       0.23913043       0.00000000       0.00000000 </v>
   <v>       0.24637681       0.00000000       0.00000000 </v>
   <v>       0.25362319       0.00000000       0.00000000 </v>
   <v>       0.26086957       0.00000000       0.00000000 </v>
   <v>       0.26811594       0.00000000       0.00000000 </v>
   <v>       0.27536232       0.00000000       0.00000000 </v>
   <v>       0.28260870       0.00000000       0.00000000 </v>
   <v>       0.28985507       0.00000000       0.00000000 </v>
   <v>       0.29710145       0.00000000       0.00000000 </v>
   <v>       0.30434783       0.00000000       0.00000000 </v>
   <v>       0.31159420       0.00000000       0.00000000 </v>
   <v>       0.31884058       0.00000000       0.00000000 </v>
   <v>       0.32608696       0.00000000       0.00000000 </v>
   <v>       0.33333333       0.00000000       0.00000000 </v>
   <v>       0.34057971       0.00000000       0.00000000 </v>
   <v>       0.34782609       0.00000000       0.00000000 </v>
   <v>       0.35507246       0.00000000       0.00000000 </v>
   <v>       0.36231884       0.00000000       0.00000000 </v>
   <v>       0.36956522       0.00000000       0.00000000 </v>
   <v>       0.37681159       0.00000000       0.00000000 </v>
   <v>       0.38405797       0.00000000       0.00000000 </v>
   <v>       0.39130435       0.00000000       0.00000000 </v>
   <v>       0.39855072       0.00000000       0.00000000 </v>
   <v>       0.40579710       0.00000000       0.00000000 </v>
   <v>       0.41304348       0.00000000       0.00000000 </v>
   <v>       0.42028986       0.00000000       0.00000000 </v>
   <v>       0.42753623       0.00000000       0.00000000 </v>
   <v>       0.43478261       0.00000000       0.00000000 </v>
   <v>       0.44202899       0.00000000       0.00000000 </v>
   <v>       0.44927536       0.00000000       0.00000000 </v>
   <v>       0.45652174       0.00000000       0.00000000 </v>
   <v>       0.46376812       0.00000000       0.00000000 </v>
   <v>       0.47101449       0.00000000       0.00000000 </v>
   <v>       0.47826087       0.00000000       0.00000000 </v>
   <v>       0.48550725       0.00000000       0.00000000 </v>
   <v>       0.49275362       0.00000000       0.00000000 </v>
   <v>       0.50000000       0.00000000       0.00000000 </v>
   <v>       0.50000000       0.00000000       0.00000000 </v>
   <v>       0.49758449       0.00483087       0.00000000 </v>
   <v>       0.49516899       0.00966174       0.00000000 </v>
   <v>       0.49275348       0.01449261       0.00000000 </v>
   <v>       0.49033797       0.01932348       0.00000000 </v>
   <v>       0.48792246       0.02415435       0.00000000 </v>
   <v>       0.48550696       0.02898522       0.00000000 </v>
   <v>       0.48309145       0.03381609       0.00000000 </v>
   <v>       0.48067594       0.03864696       0.00000000 </v>
   <v>       0.47826043       0.04347783       0.00000000 </v>
   <v>       0.47584493       0.04830870       0.00000000 </v>
   <v>       0.47342942       0.05313957       0.00000000 </v>
   <v>       0.47101391       0.05797043       0.00000000 </v>
   <v>       0.46859841       0.06280130       0.00000000 </v>
   <v>       0.46618290       0.06763217       0.00000000 </v>
   <v>       0.46376739       0.07246304       0.00000000 </v>
   <v>       0.46135188       0.07729391       0.00000000 </v>
   <v>       0.45893638       0.08212478       0.00000000 </v>
   <v>       0.45652087       0.08695565       0.00000000 </v>
   <v>       0.45410536       0.09178652       0.00000000 </v>
   <v>       0.45168986       0.09661739       0.00000000 </v>
   <v>       0.44927435       0.10144826       0.00000000 </v>
   <v>       0.44685884       0.10627913       0.00000000 </v>
   <v>       0.44444333       0.11111000       0.00000000 </v>
   <v>       0.44202783       0.11594087       0.00000000 </v>
   <v>       0.43961232       0.12077174       0.00000000 </v>
   <v>       0.43719681       0.12560261       0.00000000 </v>
   <v>       0.43478130       0.13043348       0.00000000 </v>
   <v>       0.43236580       0.13526435       0.00000000 </v>
   <v>       0.42995029       0.14009522       0.00000000 </v>
   <v>       0.42753478       0.14492609       0.00000000 </v>
   <v>       0.42511928       0.14975696       0.00000000 </v>
   <v>       0.42270377       0.15458783       0.00000000 </v>
   <v>       0.42028826       0.15941870       0.00000000 </v>
   <v>       0.41787275       0.16424957       0.00000000 </v>
   <v>       0.41545725       0.16908043       0.00000000 </v>
   <v>       0.41304174       0.17391130       0.00000000 </v>
   <v>       0.41062623       0.17874217       0.00000000 </v>
   <v>       0.40821072       0.18357304       0.00000000 </v>
   <v>       0.40579522       0.18840391       0.00000000 </v>
   <v>       0.40337971       0.19323478       0.00000000 </v>
   <v>       0.40096420       0.19806565       0.00000000 </v>
   <v>       0.39854870       0.20289652       0.00000000 </v>
   <v>       0.39613319       0.20772739       0.00000000 </v>
   <v>       0.39371768       0.21255826       0.00000000 </v>
   <v>       0.39130217       0.21738913       0.00000000 </v>
   <v>       0.38888667       0.22222000       0.00000000 </v>
   <v>       0.38647116       0.22705087       0.00000000 </v>
   <v>       0.38405565       0.23188174       0.00000000 </v>
   <v>       0.38164014       0.23671261       0.00000000 </v>
   <v>       0.37922464       0.24154348       0.00000000 </v>
   <v>       0.37680913       0.24637435       0.00000000 </v>
   <v>       0.37439362       0.25120522       0.00000000 </v>
   <v>       0.37197812       0.25603609       0.00000000 </v>
   <v>       0.36956261       0.26086696       0.00000000 </v>
   <v>       0.36714710       0.26569783       0.00000000 </v>
   <v>       0.36473159       0.27052870       0.00000000 </v>
   <v>       0.36231609       0.27535957       0.00000000 </v>
   <v>       0.35990058       0.28019043       0.00000000 </v>
   <v>       0.35748507       0.28502130       0.00000000 </v>
   <v>       0.35506957       0.28985217       0.00000000 </v>
   <v>       0.35265406       0.29468304       0.00000000 </v>
   <v>       0.35023855       0.29951391       0.00000000 </v>
   <v>       0.34782304       0.30434478       0.00000000 </v>
   <v>       0.34540754       0.30917565       0.00000000 </v>
   <v>       0.34299203       0.31400652       0.00000000 </v>
   <v>       0.34057652       0.31883739       0.00000000 </v>
   <v>       0.33816101       0.32366826       0.00000000 </v>
   <v>       0.33574551       0.32849913       0.00000000 </v>
   <v>       0.33333000       0.33333000       0.00000000 </v>
   <v>       0.33333000       0.33333000       0.00000000 </v>
   <v>       0.32849913       0.32849913       0.00000000 </v>
   <v>       0.32366826       0.32366826       0.00000000 </v>
   <v>       0.31883739       0.31883739       0.00000000 </v>
   <v>       0.31400652       0.31400652       0.00000000 </v>
   <v>       0.30917565       0.30917565       0.00000000 </v>
   <v>       0.30434478       0.30434478       0.00000000 </v>
   <v>       0.29951391       0.29951391       0.00000000 </v>
   <v>       0.29468304       0.29468304       0.00000000 </v>
   <v>       0.28985217       0.28985217       0.00000000 </v>
   <v>       0.28502130       0.28502130       0.00000000 </v>
   <v>       0.28019043       0.28019043       0.00000000 </v>
   <v>       0.27535957       0.27535957       0.00000000 </v>
   <v>       0.27052870       0.27052870       0.00000000 </v>
   <v>       0.26569783       0.26569783       0.00000000 </v>
   <v>       0.26086696       0.26086696       0.00000000 </v>
   <v>       0.25603609       0.25603609       0.00000000 </v>
   <v>       0.25120522       0.25120522       0.00000000 </v>
   <v>       0.24637435       0.24637435       0.00000000 </v>
   <v>       0.24154348       0.24154348       0.00000000 </v>
   <v>       0.23671261       0.23671261       0.00000000 </v>
   <v>       0.23188174       0.23188174       0.00000000 </v>
   <v>       0.22705087       0.22705087       0.00000000 </v>
   <v>       0.22222000       0.22222000       0.00000000 </v>
   <v>       0.21738913       0.21738913       0.00000000 </v>
   <v>       0.21255826       0.21255826       0.00000000 </v>
   <v>       0.20772739       0.20772739       0.00000000 </v>
   <v>       0.20289652       0.20289652       0.00000000 </v>
   <v>       0.19806565       0.19806565       0.00000000 </v>
   <v>       0.19323478       0.19323478       0.00000000 </v>
   <v>       0.18840391       0.18840391       0.00000000 </v>
   <v>       0.18357304       0.18357304       0.00000000 </v>
   <v>       0.17874217       0.17874217       0.00000000 </v>
   <v>       0.17391130       0.17391130       0.00000000 </v>
   <v>       0.16908043       0.16908043       0.00000000 </v>
   <v>       0.16424957       0.16424957       0.00000000 </v>
   <v>       0.15941870       0.15941870       0.00000000 </v>
   <v>       0.15458783       0.15458783       0.00000000 </v>
   <v>       0.14975696       0.14975696       0.00000000 </v>
   <v>       0.14492609       0.14492609       0.00000000 </v>
   <v>       0.14009522       0.14009522       0.00000000 </v>
   <v>       0.13526435       0.13526435       0.00000000 </v>
   <v>       0.13043348       0.13043348       0.00000000 </v>
   <v>       0.12560261       0.12560261       0.00000000 </v>
   <v>       0.12077174       0.12077174       0.00000000 </v>
   <v>       0.11594087       0.11594087       0.00000000 </v>
   <v>       0.11111000       0.11111000       0.00000000 </v>
   <v>       0.10627913       0.10627913       0.00000000 </v>
   <v>       0.10144826       0.10144826       0.00000000 </v>
   <v>       0.09661739       0.09661739       0.00000000 </v>
   <v>       0.09178652       0.09178652       0.00000000 </v>
   <v>       0.08695565       0.08695565       0.00000000 </v>
   <v>       0.08212478       0.08212478       0.00000000 </v>
   <v>       0.07729391       0.07729391       0.00000000 </v>
   <v>       0.07246304       0.07246304       0.00000000 </v>
   <v>       0.06763217       0.06763217       0.00000000 </v>
   <v>       0.06280130       0.06280130       0.00000000 </v>
   <v>       0.05797043       0.05797043       0.00000000 </v>
   <v>       0.05313957       0.05313957       0.00000000 </v>
   <v>       0.04830870       0.04830870       0.00000000 </v>
   <v>       0.04347783       0.04347783       0.00000000 </v>
   <v>       0.03864696       0.03864696       0.00000000 </v>
   <v>       0.03381609       0.03381609       0.00000000 </v>
   <v>       0.02898522       0.02898522       0.00000000 </v>
   <v>       0.02415435       0.02415435       0.00000000 </v>
   <v>       0.01932348       0.01932348       0.00000000 </v>
   <v>       0.01449261       0.01449261       0.00000000 </v>
   <v>       0.00966174       0.00966174       0.00000000 </v>
   <v>       0.00483087       0.00483087       0.00000000 </v>
   <v>       0.00000000       0.00000000       0.00000000 </v>
   <v>       0.00000000       0.00000000       0.00000000 </v>
   <v>       0.00000000       0.00000000       0.00724638 </v>
   <v>       0.00000000       0.00000000       0.01449275 </v>
   <v>       0.00000000       0.00000000       0.02173913 </v>
   <v>       0.00000000       0.00000000       0.02898551 </v>
   <v>       0.00000000       0.00000000       0.03623188 </v>
   <v>       0.00000000       0.00000000       0.04347826 </v>
   <v>       0.00000000       0.00000000       0.05072464 </v>
   <v>       0.00000000       0.00000000       0.05797101 </v>
   <v>       0.00000000       0.00000000       0.06521739 </v>
   <v>       0.00000000       0.00000000       0.07246377 </v>
   <v>       0.00000000       0.00000000       0.07971014 </v>
   <v>       0.00000000       0.00000000       0.08695652 </v>
   <v>       0.00000000       0.00000000       0.09420290 </v>
   <v>       0.00000000       0.00000000       0.10144928 </v>
   <v>       0.00000000       0.00000000       0.10869565 </v>
   <v>       0.00000000       0.00000000       0.11594203 </v>
   <v>       0.00000000       0.00000000       0.12318841 </v>
   <v>       0.00000000       0.00000000       0.13043478 </v>
   <v>       0.00000000       0.00000000       0.13768116 </v>
   <v>       0.00000000       0.00000000       0.14492754 </v>
   <v>       0.00000000       0.00000000       0.15217391 </v>
   <v>       0.00000000       0.00000000       0.15942029 </v>
   <v>       0.00000000       0.00000000       0.16666667 </v>
   <v>       0.00000000       0.00000000       0.17391304 </v>
   <v>       0.00000000       0.00000000       0.18115942 </v>
   <v>       0.00000000       0.00000000       0.18840580 </v>
   <v>       0.00000000       0.00000000       0.19565217 </v>
   <v>       0.00000000       0.00000000       0.20289855 </v>
   <v>       0.00000000       0.00000000       0.21014493 </v>
   <v>       0.00000000       0.00000000       0.21739130 </v>
   <v>       0.00000000       0.00000000       0.22463768 </v>
   <v>       0.00000000       0.00000000       0.23188406 </v>
   <v>       0.00000000       0.00000000       0.23913043 </v>
   <v>       0.00000000       0.00000000       0.24637681 </v>
   <v>       0.00000000       0.00000000       0.25362319 </v>
   <v>       0.00000000       0.00000000       0.26086957 </v>
   <v>       0.00000000       0.00000000       0.26811594 </v>
   <v>       0.00000000       0.00000000       0.27536232 </v>
   <v>       0.00000000       0.00000000       0.28260870 </v>
   <v>       0.00000000       0.00000000       0.28985507 </v>
   <v>       0.00000000       0.00000000       0.29710145 </v>
   <v>       0.00000000       0.00000000       0.30434783 </v>
   <v>       0.00000000       0.00000000       0.31159420 </v>
   <v>       0.00000000       0.00000000       0.31884058 </v>
   <v>       0.00000000       0.00000000       0.32608696 </v>
   <v>       0.00000000       0.00000000       0.33333333 </v>
   <v>       0.00000000       0.00000000       0.34057971 </v>
   <v>       0.00000000       0.00000000       0.34782609 </v>
   <v>       0.00000000       0.00000000       0.35507246 </v>
   <v>       0.00000000       0.00000000       0.36231884 </v>
   <v>       0.00000000       0.00000000       0.36956522 </v>
   <v>       0.00000000       0.00000000       0.37681159 </v>
   <v>       0.00000000       0.00000000       0.38405797 </v>
   <v>       0.00000000       0.00000000       0.39130435 </v>
   <v>       0.00000000       0.00000000       0.39855072 </v>
   <v>       0.00000000       0.00000000       0.40579710 </v>
   <v>       0.00000000       0.00000000       0.41304348 </v>
   <v>       0.00000000       0.00000000       0.42028986 </v>
   <v>       0.00000000       0.00000000       0.42753623 </v>
   <v>       0.00000000       0.00000000       0.43478261 </v>
   <v>       0.00000000       0.00000000       0.44202899 </v>
   <v>       0.00000000       0.00000000       0.44927536 </v>
   <v>       0.00000000       0.00000000       0.45652174 </v>
   <v>       0.00000000       0.00000000       0.46376812 </v>
   <v>       0.00000000       0.00000000       0.47101449 </v>
   <v>       0.00000000       0.00000000       0.47826087 </v>
   <v>       0.00000000       0.00000000       0.48550725 </v>
   <v>       0.00000000       0.00000000       0.49275362 </v>
   <v>       0.00000000       0.00000000       0.50000000 </v>
   <v>       0.00000000       0.00000000       0.50000000 </v>
   <v>       0.00724638       0.00000000       0.50000000 </v>
   <v>       0.01449275       0.00000000       0.50000000 </v>
   <v>       0.02173913       0.00000000       0.50000000 </v>
   <v>       0.02898551       0.00000000       0.50000000 </v>
   <v>       0.03623188       0.00000000       0.50000000 </v>
   <v>       0.04347826       0.00000000       0.50000000 </v>
   <v>       0.05072464       0.00000000       0.50000000 </v>
   <v>       0.05797101       0.00000000       0.50000000 </v>
   <v>       0.06521739       0.00000000       0.50000000 </v>
   <v>       0.07246377       0.00000000       0.50000000 </v>
   <v>       0.07971014       0.00000000       0.50000000 </v>
   <v>       0.08695652       0.00000000       0.50000000 </v>
   <v>       0.09420290       0.00000000       0.50000000 </v>
   <v>       0.10144928       0.00000000       0.50000000 </v>
   <v>       0.10869565       0.00000000       0.50000000 </v>
   <v>       0.11594203       0.00000000       0.50000000 </v>
   <v>       0.12318841       0.00000000       0.50000000 </v>
   <v>       0.13043478       0.00000000       0.50000000 </v>
   <v>       0.13768116       0.00000000       0.50000000 </v>
   <v>       0.14492754       0.00000000       0.50000000 </v>
   <v>       0.15217391       0.00000000       0.50000000 </v>
   <v>       0.15942029       0.00000000       0.50000000 </v>
   <v>       0.16666667       0.00000000       0.50000000 </v>
   <v>       0.17391304       0.00000000       0.50000000 </v>
   <v>       0.18115942       0.00000000       0.50000000 </v>
   <v>       0.18840580       0.00000000       0.50000000 </v>
   <v>       0.19565217       0.00000000       0.50000000 </v>
   <v>       0.20289855       0.00000000       0.50000000 </v>
   <v>       0.21014493       0.00000000       0.50000000 </v>
   <v>       0.21739130       0.00000000       0.50000000 </v>
   <v>       0.22463768       0.00000000       0.50000000 </v>
   <v>       0.23188406       0.00000000       0.50000000 </v>
   <v>       0.23913043       0.00000000       0.50000000 </v>
   <v>       0.24637681       0.00000000       0.50000000 </v>
   <v>       0.25362319       0.00000000       0.50000000 </v>
   <v>       0.26086957       0.00000000       0.50000000 </v>
   <v>       0.26811594       0.00000000       0.50000000 </v>
   <v>       0.27536232       0.00000000       0.50000000 </v>
   <v>       0.28260870       0.00000000       0.50000000 </v>
   <v>       0.28985507       0.00000000       0.50000000 </v>
   <v>       0.29710145       0.00000000       0.50000000 </v>
   <v>       0.30434783       0.00000000       0.50000000 </v>
   <v>       0.31159420       0.00000000       0.50000000 </v>
   <v>       0.31884058       0.00000000       0.50000000 </v>
   <v>       0.32608696       0.00000000       0.50000000 </v>
   <v>       0.33333333       0.00000000       0.50000000 </v>
   <v>       0.34057971       0.00000000       0.50000000 </v>
   <v>       0.34782609       0.00000000       0.50000000 </v>
   <v>       0.35507246       0.00000000       0.50000000 </v>
   <v>       0.36231884       0.00000000       0.50000000 </v>
   <v>       0.36956522       0.00000000       0.50000000 </v>
   <v>       0.37681159       0.00000000       0.50000000 </v>
   <v>       0.38405797       0.00000000       0.50000000 </v>
   <v>       0.39130435       0.00000000       0.50000000 </v>
   <v>       0.39855072       0.00000000       0.50000000 </v>
   <v>       0.40579710       0.00000000       0.50000000 </v>
   <v>       0.41304348       0.00000000       0.50000000 </v>
   <v>       0.42028986       0.00000000       0.50000000 </v>
   <v>       0.42753623       0.00000000       0.50000000 </v>
   <v>       0.43478261       0.00000000       0.50000000 </v>
   <v>       0.44202899       0.00000000       0.50000000 </v>
   <v>       0.44927536       0.00000000       0.50000000 </v>
   <v>       0.45652174       0.00000000       0.50000000 </v>
   <v>       0.46376812       0.00000000       0.50000000 </v>
   <v>       0.47101449       0.00000000       0.50000000 </v>
   <v>       0.47826087       0.00000000       0.50000000 </v>
   <v>       0.48550725       0.00000000       0.50000000 </v>
   <v>       0.49275362       0.00000000       0.50000000 </v>
   <v>       0.50000000       0.00000000       0.50000000 </v>
   <v>       0.50000000       0.00000000       0.50000000 </v>
   <v>       0.49758449       0.00483087       0.50000000 </v>
   <v>       0.49516899       0.00966174       0.50000000 </v>
   <v>       0.49275348       0.01449261       0.50000000 </v>
   <v>       0.49033797       0.01932348       0.50000000 </v>
   <v>       0.48792246       0.02415435       0.50000000 </v>
   <v>       0.48550696       0.02898522       0.50000000 </v>
   <v>       0.48309145       0.03381609       0.50000000 </v>
   <v>       0.48067594       0.03864696       0.50000000 </v>
   <v>       0.47826043       0.04347783       0.50000000 </v>
   <v>       0.47584493       0.04830870       0.50000000 </v>
   <v>       0.47342942       0.05313957       0.50000000 </v>
   <v>       0.47101391       0.05797043       0.50000000 </v>
   <v>       0.46859841       0.06280130       0.50000000 </v>
   <v>       0.46618290       0.06763217       0.50000000 </v>
   <v>       0.46376739       0.07246304       0.50000000 </v>
   <v>       0.46135188       0.07729391       0.50000000 </v>
   <v>       0.45893638       0.08212478       0.50000000 </v>
   <v>       0.45652087       0.08695565       0.50000000 </v>
   <v>       0.45410536       0.09178652       0.50000000 </v>
   <v>       0.45168986       0.09661739       0.50000000 </v>
   <v>       0.44927435       0.10144826       0.50000000 </v>
   <v>       0.44685884       0.10627913       0.50000000 </v>
   <v>       0.44444333       0.11111000       0.50000000 </v>
   <v>       0.44202783       0.11594087       0.50000000 </v>
   <v>       0.43961232       0.12077174       0.50000000 </v>
   <v>       0.43719681       0.12560261       0.50000000 </v>
   <v>       0.43478130       0.13043348       0.50000000 </v>
   <v>       0.43236580       0.13526435       0.50000000 </v>
   <v>       0.42995029       0.14009522       0.50000000 </v>
   <v>       0.42753478       0.14492609       0.50000000 </v>
   <v>       0.42511928       0.14975696       0.50000000 </v>
   <v>       0.42270377       0.15458783       0.50000000 </v>
   <v>       0.42028826       0.15941870       0.50000000 </v>
   <v>       0.41787275       0.16424957       0.50000000 </v>
   <v>       0.41545725       0.16908043       0.50000000 </v>
   <v>       0.41304174       0.17391130       0.50000000 </v>
   <v>       0.41062623       0.17874217       0.50000000 </v>
   <v>       0.40821072       0.18357304       0.50000000 </v>
   <v>       0.40579522       0.18840391       0.50000000 </v>
   <v>       0.40337971       0.19323478       0.50000000 </v>
   <v>       0.40096420       0.19806565       0.50000000 </v>
   <v>       0.39854870       0.20289652       0.50000000 </v>
   <v>       0.39613319       0.20772739       0.50000000 </v>
   <v>       0.39371768       0.21255826       0.50000000 </v>
   <v>       0.39130217       0.21738913       0.50000000 </v>
   <v>       0.38888667       0.22222000       0.50000000 </v>
   <v>       0.38647116       0.22705087       0.50000000 </v>
   <v>       0.38405565       0.23188174       0.50000000 </v>
   <v>       0.38164014       0.23671261       0.50000000 </v>
   <v>       0.37922464       0.24154348       0.50000000 </v>
   <v>       0.37680913       0.24637435       0.50000000 </v>
   <v>       0.37439362       0.25120522       0.50000000 </v>
   <v>       0.37197812       0.25603609       0.50000000 </v>
   <v>       0.36956261       0.26086696       0.50000000 </v>
   <v>       0.36714710       0.26569783       0.50000000 </v>
   <v>       0.36473159       0.27052870       0.50000000 </v>
   <v>       0.36231609       0.27535957       0.50000000 </v>
   <v>       0.35990058       0.28019043       0.50000000 </v>
   <v>       0.35748507       0.28502130       0.50000000 </v>
   <v>       0.35506957       0.28985217       0.50000000 </v>
   <v>       0.35265406       0.29468304       0.50000000 </v>
   <v>       0.35023855       0.29951391       0.50000000 </v>
   <v>       0.34782304       0.30434478       0.50000000 </v>
   <v>       0.34540754       0.30917565       0.50000000 </v>
   <v>       0.34299203       0.31400652       0.50000000 </v>
   <v>       0.34057652       0.31883739       0.50000000 </v>
   <v>       0.33816101       0.32366826       0.50000000 </v>
   <v>       0.33574551       0.32849913       0.50000000 </v>
   <v>       0.33333000       0.33333000       0.50000000 </v>
   <v>       0.33333000       0.33333000       0.50000000 </v>
   <v>       0.32849913       0.32849913       0.50000000 </v>
   <v>       0.32366826       0.32366826       0.50000000 </v>
   <v>       0.31883739       0.31883739       0.50000000 </v>
   <v>       0.31400652       0.31400652       0.50000000 </v>
   <v>       0.30917565       0.30917565       0.50000000 </v>
   <v>       0.30434478       0.30434478       0.50000000 </v>
   <v>       0.29951391       0.29951391       0.50000000 </v>
   <v>       0.29468304       0.29468304       0.50000000 </v>
   <v>       0.28985217       0.28985217       0.50000000 </v>
   <v>       0.28502130       0.28502130       0.50000000 </v>
   <v>       0.28019043       0.28019043       0.50000000 </v>
   <v>       0.27535957       0.27535957       0.50000000 </v>
   <v>       0.27052870       0.27052870       0.50000000 </v>
   <v>       0.26569783       0.26569783       0.50000000 </v>
   <v>       0.26086696       0.26086696       0.50000000 </v>
   <v>       0.25603609       0.25603609       0.50000000 </v>
   <v>       0.25120522       0.25120522       0.50000000 </v>
   <v>       0.24637435       0.24637435       0.50000000 </v>
   <v>       0.24154348       0.24154348       0.50000000 </v>
   <v>       0.23671261       0.23671261       0.50000000 </v>
   <v>       0.23188174       0.23188174       0.50000000 </v>
   <v>       0.22705087       0.22705087       0.50000000 </v>
   <v>       0.22222000       0.22222000       0.50000000 </v>
   <v>       0.21738913       0.21738913       0.50000000 </v>
   <v>       0.21255826       0.21255826       0.50000000 </v>
   <v>       0.20772739       0.20772739       0.50000000 </v>
   <v>       0.20289652       0.20289652       0.50000000 </v>
   <v>       0.19806565       0.19806565       0.50000000 </v>
   <v>       0.19323478       0.19323478       0.50000000 </v>
   <v>       0.18840391       0.18840391       0.50000000 </v>
   <v>       0.18357304       0.18357304       0.50000000 </v>
   <v>       0.17874217       0.17874217       0.50000000 </v>
   <v>       0.17391130       0.17391130       0.50000000 </v>
   <v>       0.16908043       0.16908043       0.50000000 </v>
   <v>       0.16424957       0.16424957       0.50000000 </v>
   <v>       0.15941870       0.15941870       0.50000000 </v>
   <v>       0.15458783       0.15458783       0.50000000 </v>
   <v>       0.14975696       0.14975696       0.50000000 </v>
   <v>       0.14492609       0.14492609       0.50000000 </v>
   <v>       0.14009522       0.14009522       0.50000000 </v>
   <v>       0.13526435       0.13526435       0.50000000 </v>
   <v>       0.13043348       0.13043348       0.50000000 </v>
   <v>       0.12560261       0.12560261       0.50000000 </v>
   <v>       0.12077174       0.12077174       0.50000000 </v>
   <v>       0.11594087       0.11594087       0.50000000 </v>
   <v>       0.11111000       0.11111000       0.50000000 </v>
   <v>       0.10627913       0.10627913       0.50000000 </v>
   <v>       0.10144826       0.10144826       0.50000000 </v>
   <v>       0.09661739       0.09661739       0.50000000 </v>
   <v>       0.09178652       0.09178652       0.50000000 </v>
   <v>       0.08695565       0.08695565       0.50000000 </v>
   <v>       0.08212478       0.08212478       0.50000000 </v>
   <v>       0.07729391       0.07729391       0.50000000 </v>
   <v>       0.07246304       0.07246304       0.50000000 </v>
   <v>       0.06763217       0.06763217       0.50000000 </v>
   <v>       0.06280130       0.06280130       0.50000000 </v>
   <v>       0.05797043       0.05797043       0.50000000 </v>
   <v>       0.05313957       0.05313957       0.50000000 </v>
   <v>       0.04830870       0.04830870       0.50000000 </v>
   <v>       0.04347783       0.04347783       0.50000000 </v>
   <v>       0.03864696       0.03864696       0.50000000 </v>
   <v>       0.03381609       0.03381609       0.50000000 </v>
   <v>       0.02898522       0.02898522       0.50000000 </v>
   <v>       0.02415435       0.02415435       0.50000000 </v>
   <v>       0.01932348       0.01932348       0.50000000 </v>
   <v>       0.01449261       0.01449261       0.50000000 </v>
   <v>       0.00966174       0.00966174       0.50000000 </v>
   <v>       0.00483087       0.00483087       0.50000000 </v>
   <v>       0.00000000       0.00000000       0.50000000 </v>
  </varray>
  <varray name="weights" >
   <v>       0.00204082 </v>
   <v>       0.00204082 </v>
   <v>       0.00204082 </v>
   <v>       0.00204082 </v>
   <v>       0.00204082 </v>
   <v>       0.00204082 </v>
   <v>       0.00204082 </v>
   <v>       0.00204082 </v>
   <v>       0.00204082 </v>
   <v>       0.00204082 </v>
   <v>       0.00204082 </v>
   <v>       0.00204082 </v>
   <v>       0.00204082 </v>
   <v>       0.00204082 </v>
   <v>       0.00204082 </v>
   <v>       0.00204082 </v>
   <v>       0.00204082 </v>
   <v>       0.00204082 </v>
   <v>       0.00204082 </v>
   <v>       0.00204082 </v>
   <v>       0.00204082 </v>
   <v>       0.00204082 </v>
   <v>       0.00204082 </v>
   <v>       0.00204082 </v>
   <v>       0.00204082 </v>
   <v>       0.00204082 </v>
   <v>       0.00204082 </v>
   <v>       0.00204082 </v>
   <v>       0.00204082 </v>
   <v>       0.00204082 </v>
   <v>       0.00204082 </v>
   <v>       0.00204082 </v>
   <v>       0.00204082 </v>
   <v>       0.00204082 </v>
   <v>       0.00204082 </v>
   <v>       0.00204082 </v>
   <v>       0.00204082 </v>
   <v>       0.00204082 </v>
   <v>       0.00204082 </v>
   <v>       0.00204082 </v>
   <v>       0.00204082 </v>
   <v>       0.00204082 </v>
   <v>       0.00204082 </v>
   <v>       0.00204082 </v>
   <v>       0.00204082 </v>
   <v>       0.00204082 </v>
   <v>       0.00204082 </v>
   <v>       0.00204082 </v>
   <v>       0.00204082 </v>
   <v>       0.00204082 </v>
   <v>       0.00204082 </v>
   <v>       0.00204082 </v>
   <v>       0.00204082 </v>
   <v>       0.00204082 </v>
   <v>       0.00204082 </v>
   <v>       0.00204082 </v>
   <v>       0.00204082 </v>
   <v>       0.00204082 </v>
   <v>       0.00204082 </v>
   <v>       0.00204082 </v>
   <v>       0.00204082 </v>
   <v>       0.00204082 </v>
   <v>       0.00204082 </v>
   <v>       0.00204082 </v>
   <v>       0.00204082 </v>
   <v>       0.00204082 </v>
   <v>       0.00204082 </v>
   <v>       0.00204082 </v>
   <v>       0.00204082 </v>
   <v>       0.00204082 </v>
   <v>       0.00204082 </v>
   <v>       0.00204082 </v>
   <v>       0.00204082 </v>
   <v>       0.00204082 </v>
   <v>       0.00204082 </v>
   <v>       0.00204082 </v>
   <v>       0.00204082 </v>
   <v>       0.00204082 </v>
   <v>       0.00204082 </v>
   <v>       0.00204082 </v>
   <v>       0.00204082 </v>
   <v>       0.00204082 </v>
   <v>       0.00204082 </v>
   <v>       0.00204082 </v>
   <v>       0.00204082 </v>
   <v>       0.00204082 </v>
   <v>       0.00204082 </v>
   <v>       0.00204082 </v>
   <v>       0.00204082 </v>
   <v>       0.00204082 </v>
   <v>       0.00204082 </v>
   <v>       0.00204082 </v>
   <v>       0.00204082 </v>
   <v>       0.00204082 </v>
   <v>       0.00204082 </v>
   <v>       0.00204082 </v>
   <v>       0.00204082 </v>
   <v>       0.00204082 </v>
   <v>       0.00204082 </v>
   <v>       0.00204082 </v>
   <v>       0.00204082 </v>
   <v>       0.00204082 </v>
   <v>       0.00204082 </v>
   <v>       0.00204082 </v>
   <v>       0.00204082 </v>
   <v>       0.00204082 </v>
   <v>       0.00204082 </v>
   <v>       0.00204082 </v>
   <v>       0.00204082 </v>
   <v>       0.00204082 </v>
   <v>       0.00204082 </v>
   <v>       0.00204082 </v>
   <v>       0.00204082 </v>
   <v>       0.00204082 </v>
   <v>       0.00204082 </v>
   <v>       0.00204082 </v>
   <v>       0.00204082 </v>
   <v>       0.00204082 </v>
   <v>       0.00204082 </v>
   <v>       0.00204082 </v>
   <v>       0.00204082 </v>
   <v>       0.00204082 </v>
   <v>       0.00204082 </v>
   <v>       0.00204082 </v>
   <v>       0.00204082 </v>
   <v>       0.00204082 </v>
   <v>       0.00204082 </v>
   <v>       0.00204082 </v>
   <v>       0.00204082 </v>
   <v>       0.00204082 </v>
   <v>       0.00204082 </v>
   <v>       0.00204082 </v>
   <v>       0.00204082 </v>
   <v>       0.00204082 </v>
   <v>       0.00204082 </v>
   <v>       0.00204082 </v>
   <v>       0.00204082 </v>
   <v>       0.00204082 </v>
   <v>       0.00204082 </v>
   <v>       0.00204082 </v>
   <v>       0.00204082 </v>
   <v>       0.00204082 </v>
   <v>       0.00204082 </v>
   <v>       0.00204082 </v>
   <v>       0.00204082 </v>
   <v>       0.00204082 </v>
   <v>       0.00204082 </v>
   <v>       0.00204082 </v>
   <v>       0.00204082 </v>
   <v>       0.00204082 </v>
   <v>       0.00204082 </v>
   <v>       0.00204082 </v>
   <v>       0.00204082 </v>
   <v>       0.00204082 </v>
   <v>       0.00204082 </v>
   <v>       0.00204082 </v>
   <v>       0.00204082 </v>
   <v>       0.00204082 </v>
   <v>       0.00204082 </v>
   <v>       0.00204082 </v>
   <v>       0.00204082 </v>
   <v>       0.00204082 </v>
   <v>       0.00204082 </v>
   <v>       0.00204082 </v>
   <v>       0.00204082 </v>
   <v>       0.00204082 </v>
   <v>       0.00204082 </v>
   <v>       0.00204082 </v>
   <v>       0.00204082 </v>
   <v>       0.00204082 </v>
   <v>       0.00204082 </v>
   <v>       0.00204082 </v>
   <v>       0.00204082 </v>
   <v>       0.00204082 </v>
   <v>       0.00204082 </v>
   <v>       0.00204082 </v>
   <v>       0.00204082 </v>
   <v>       0.00204082 </v>
   <v>       0.00204082 </v>
   <v>       0.00204082 </v>
   <v>       0.00204082 </v>
   <v>       0.00204082 </v>
   <v>       0.00204082 </v>
   <v>       0.00204082 </v>
   <v>       0.00204082 </v>
   <v>       0.00204082 </v>
   <v>       0.00204082 </v>
   <v>       0.00204082 </v>
   <v>       0.00204082 </v>
   <v>       0.00204082 </v>
   <v>       0.00204082 </v>
   <v>       0.00204082 </v>
   <v>       0.00204082 </v>
   <v>       0.00204082 </v>
   <v>       0.00204082 </v>
   <v>       0.00204082 </v>
   <v>       0.00204082 </v>
   <v>       0.00204082 </v>
   <v>       0.00204082 </v>
   <v>       0.00204082 </v>
   <v>       0.00204082 </v>
   <v>       0.00204082 </v>
   <v>       0.00204082 </v>
   <v>       0.00204082 </v>
   <v>       0.00204082 </v>
   <v>       0.00204082 </v>
   <v>       0.00204082 </v>
   <v>       0.00204082 </v>
   <v>       0.00204082 </v>
   <v>       0.00204082 </v>
   <v>       0.00204082 </v>
   <v>       0.00204082 </v>
   <v>       0.00204082 </v>
   <v>       0.00204082 </v>
   <v>       0.00204082 </v>
   <v>       0.00204082 </v>
   <v>       0.00204082 </v>
   <v>       0.00204082 </v>
   <v>       0.00204082 </v>
   <v>       0.00204082 </v>
   <v>       0.00204082 </v>
   <v>       0.00204082 </v>
   <v>       0.00204082 </v>
   <v>       0.00204082 </v>
   <v>       0.00204082 </v>
   <v>       0.00204082 </v>
   <v>       0.00204082 </v>
   <v>       0.00204082 </v>
   <v>       0.00204082 </v>
   <v>       0.00204082 </v>
   <v>       0.00204082 </v>
   <v>       0.00204082 </v>
   <v>       0.00204082 </v>
   <v>       0.00204082 </v>
   <v>       0.00204082 </v>
   <v>       0.00204082 </v>
   <v>       0.00204082 </v>
   <v>       0.00204082 </v>
   <v>       0.00204082 </v>
   <v>       0.00204082 </v>
   <v>       0.00204082 </v>
   <v>       0.00204082 </v>
   <v>       0.00204082 </v>
   <v>       0.00204082 </v>
   <v>       0.00204082 </v>
   <v>       0.00204082 </v>
   <v>       0.00204082 </v>
   <v>       0.00204082 </v>
   <v>       0.00204082 </v>
   <v>       0.00204082 </v>
   <v>       0.00204082 </v>
   <v>       0.00204082 </v>
   <v>       0.00204082 </v>
   <v>       0.00204082 </v>
   <v>       0.00204082 </v>
   <v>       0.00204082 </v>
   <v>       0.00204082 </v>
   <v>       0.00204082 </v>
   <v>       0.00204082 </v>
   <v>       0.00204082 </v>
   <v>       0.00204082 </v>
   <v>       0.00204082 </v>
   <v>       0.00204082 </v>
   <v>       0.00204082 </v>
   <v>       0.00204082 </v>
   <v>       0.00204082 </v>
   <v>       0.00204082 </v>
   <v>       0.00204082 </v>
   <v>       0.00204082 </v>
   <v>       0.00204082 </v>
   <v>       0.00204082 </v>
   <v>       0.00204082 </v>
   <v>       0.00204082 </v>
   <v>       0.00204082 </v>
   <v>       0.00204082 </v>
   <v>       0.00204082 </v>
   <v>       0.00204082 </v>
   <v>       0.00204082 </v>
   <v>       0.00204082 </v>
   <v>       0.00204082 </v>
   <v>       0.00204082 </v>
   <v>       0.00204082 </v>
   <v>       0.00204082 </v>
   <v>       0.00204082 </v>
   <v>       0.00204082 </v>
   <v>       0.00204082 </v>
   <v>       0.00204082 </v>
   <v>       0.00204082 </v>
   <v>       0.00204082 </v>
   <v>       0.00204082 </v>
   <v>       0.00204082 </v>
   <v>       0.00204082 </v>
   <v>       0.00204082 </v>
   <v>       0.00204082 </v>
   <v>       0.00204082 </v>
   <v>       0.00204082 </v>
   <v>       0.00204082 </v>
   <v>       0.00204082 </v>
   <v>       0.00204082 </v>
   <v>       0.00204082 </v>
   <v>       0.00204082 </v>
   <v>       0.00204082 </v>
   <v>       0.00204082 </v>
   <v>       0.00204082 </v>
   <v>       0.00204082 </v>
   <v>       0.00204082 </v>
   <v>       0.00204082 </v>
   <v>       0.00204082 </v>
   <v>       0.00204082 </v>
   <v>       0.00204082 </v>
   <v>       0.00204082 </v>
   <v>       0.00204082 </v>
   <v>       0.00204082 </v>
   <v>       0.00204082 </v>
   <v>       0.00204082 </v>
   <v>       0.00204082 </v>
   <v>       0.00204082 </v>
   <v>       0.00204082 </v>
   <v>       0.00204082 </v>
   <v>       0.00204082 </v>
   <v>       0.00204082 </v>
   <v>       0.00204082 </v>
   <v>       0.00204082 </v>
   <v>       0.00204082 </v>
   <v>       0.00204082 </v>
   <v>       0.00204082 </v>
   <v>       0.00204082 </v>
   <v>       0.00204082 </v>
   <v>       0.00204082 </v>
   <v>       0.00204082 </v>
   <v>       0.00204082 </v>
   <v>       0.00204082 </v>
   <v>       0.00204082 </v>
   <v>       0.00204082 </v>
   <v>       0.00204082 </v>
   <v>       0.00204082 </v>
   <v>       0.00204082 </v>
   <v>       0.00204082 </v>
   <v>       0.00204082 </v>
   <v>       0.00204082 </v>
   <v>       0.00204082 </v>
   <v>       0.00204082 </v>
   <v>       0.00204082 </v>
   <v>       0.00204082 </v>
   <v>       0.00204082 </v>
   <v>       0.00204082 </v>
   <v>       0.00204082 </v>
   <v>       0.00204082 </v>
   <v>       0.00204082 </v>
   <v>       0.00204082 </v>
   <v>       0.00204082 </v>
   <v>       0.00204082 </v>
   <v>       0.00204082 </v>
   <v>       0.00204082 </v>
   <v>       0.00204082 </v>
   <v>       0.00204082 </v>
   <v>       0.00204082 </v>
   <v>       0.00204082 </v>
   <v>       0.00204082 </v>
   <v>       0.00204082 </v>
   <v>       0.00204082 </v>
   <v>       0.00204082 </v>
   <v>       0.00204082 </v>
   <v>       0.00204082 </v>
   <v>       0.00204082 </v>
   <v>       0.00204082 </v>
   <v>       0.00204082 </v>
   <v>       0.00204082 </v>
   <v>       0.00204082 </v>
   <v>       0.00204082 </v>
   <v>       0.00204082 </v>
   <v>       0.00204082 </v>
   <v>       0.00204082 </v>
   <v>       0.00204082 </v>
   <v>       0.00204082 </v>
   <v>       0.00204082 </v>
   <v>       0.00204082 </v>
   <v>       0.00204082 </v>
   <v>       0.00204082 </v>
   <v>       0.00204082 </v>
   <v>       0.00204082 </v>
   <v>       0.00204082 </v>
   <v>       0.00204082 </v>
   <v>       0.00204082 </v>
   <v>       0.00204082 </v>
   <v>       0.00204082 </v>
   <v>       0.00204082 </v>
   <v>       0.00204082 </v>
   <v>       0.00204082 </v>
   <v>       0.00204082 </v>
   <v>       0.00204082 </v>
   <v>       0.00204082 </v>
   <v>       0.00204082 </v>
   <v>       0.00204082 </v>
   <v>       0.00204082 </v>
   <v>       0.00204082 </v>
   <v>       0.00204082 </v>
   <v>       0.00204082 </v>
   <v>       0.00204082 </v>
   <v>       0.00204082 </v>
   <v>       0.00204082 </v>
   <v>       0.00204082 </v>
   <v>       0.00204082 </v>
   <v>       0.00204082 </v>
   <v>       0.00204082 </v>
   <v>       0.00204082 </v>
   <v>       0.00204082 </v>
   <v>       0.00204082 </v>
   <v>       0.00204082 </v>
   <v>       0.00204082 </v>
   <v>       0.00204082 </v>
   <v>       0.00204082 </v>
   <v>       0.00204082 </v>
   <v>       0.00204082 </v>
   <v>       0.00204082 </v>
   <v>       0.00204082 </v>
   <v>       0.00204082 </v>
   <v>       0.00204082 </v>
   <v>       0.00204082 </v>
   <v>       0.00204082 </v>
   <v>       0.00204082 </v>
   <v>       0.00204082 </v>
   <v>       0.00204082 </v>
   <v>       0.00204082 </v>
   <v>       0.00204082 </v>
   <v>       0.00204082 </v>
   <v>       0.00204082 </v>
   <v>       0.00204082 </v>
   <v>       0.00204082 </v>
   <v>       0.00204082 </v>
   <v>       0.00204082 </v>
   <v>       0.00204082 </v>
   <v>       0.00204082 </v>
   <v>       0.00204082 </v>
   <v>       0.00204082 </v>
   <v>       0.00204082 </v>
   <v>       0.00204082 </v>
   <v>       0.00204082 </v>
   <v>       0.00204082 </v>
   <v>       0.00204082 </v>
   <v>       0.00204082 </v>
   <v>       0.00204082 </v>
   <v>       0.00204082 </v>
   <v>       0.00204082 </v>
   <v>       0.00204082 </v>
   <v>       0.00204082 </v>
   <v>       0.00204082 </v>
   <v>       0.00204082 </v>
   <v>       0.00204082 </v>
   <v>       0.00204082 </v>
   <v>       0.00204082 </v>
   <v>       0.00204082 </v>
   <v>       0.00204082 </v>
   <v>       0.00204082 </v>
   <v>       0.00204082 </v>
   <v>       0.00204082 </v>
   <v>       0.00204082 </v>
   <v>       0.00204082 </v>
   <v>       0.00204082 </v>
   <v>       0.00204082 </v>
   <v>       0.00204082 </v>
   <v>       0.00204082 </v>
   <v>       0.00204082 </v>
   <v>       0.00204082 </v>
   <v>       0.00204082 </v>
   <v>       0.00204082 </v>
   <v>       0.00204082 </v>
   <v>       0.00204082 </v>
   <v>       0.00204082 </v>
   <v>       0.00204082 </v>
   <v>       0.00204082 </v>
   <v>       0.00204082 </v>
   <v>       0.00204082 </v>
   <v>       0.00204082 </v>
   <v>       0.00204082 </v>
   <v>       0.00204082 </v>
   <v>       0.00204082 </v>
   <v>       0.00204082 </v>
   <v>       0.00204082 </v>
   <v>       0.00204082 </v>
   <v>       0.00204082 </v>
   <v>       0.00204082 </v>
   <v>       0.00204082 </v>
   <v>       0.00204082 </v>
   <v>       0.00204082 </v>
   <v>       0.00204082 </v>
   <v>       0.00204082 </v>
   <v>       0.00204082 </v>
   <v>       0.00204082 </v>
   <v>       0.00204082 </v>
  </varray>
 </kpoints>
 <parameters>
  <separator name="general" >
   <i type="string" name="SYSTEM">/net/hulk/PMD/skwon/GaN/Wurtzite/vasp/U</i>
   <i type="logical" name="LCOMPAT"> F  </i>
  </separator>
  <separator name="electronic" >
   <i type="string" name="PREC">accura</i>
   <i name="ENMAX">    500.00000000</i>
   <i name="ENAUG">    627.11200000</i>
   <i name="EDIFF">      0.00000010</i>
   <i type="int" name="IALGO">    68</i>
   <i type="int" name="IWAVPR">    10</i>
   <i type="int" name="NBANDS">    22</i>
   <i name="NELECT">     36.00000000</i>
   <i type="int" name="TURBO">     0</i>
   <i type="int" name="IRESTART">     0</i>
   <i type="int" name="NREBOOT">     0</i>
   <i type="int" name="NMIN">     0</i>
   <i name="EREF">      0.00000000</i>
   <separator name="electronic smearing" >
    <i type="int" name="ISMEAR">     0</i>
    <i name="SIGMA">      0.03000000</i>
    <i name="KSPACING">      0.50000000</i>
    <i type="logical" name="KGAMMA"> T  </i>
   </separator>
   <separator name="electronic projectors" >
    <i type="logical" name="LREAL"> F  </i>
    <v name="ROPT">      0.00000000      0.00000000</v>
    <i type="int" name="LMAXPAW">  -100</i>
    <i type="int" name="LMAXMIX">     4</i>
    <i type="logical" name="NLSPLINE"> F  </i>
   </separator>
   <separator name="electronic startup" >
    <i type="int" name="ISTART">     0</i>
    <i type="int" name="ICHARG">    11</i>
    <i type="int" name="INIWAV">     1</i>
   </separator>
   <separator name="electronic spin" >
    <i type="int" name="ISPIN">     1</i>
    <i type="logical" name="LNONCOLLINEAR"> F  </i>
    <v name="MAGMOM">      1.00000000      1.00000000      1.00000000      1.00000000</v>
    <i name="NUPDOWN">     -1.00000000</i>
    <i type="logical" name="LSORBIT"> F  </i>
    <v name="SAXIS">      0.00000000      0.00000000      1.00000000</v>
    <i type="logical" name="LSPIRAL"> F  </i>
    <v name="QSPIRAL">      0.00000000      0.00000000      0.00000000</v>
    <i type="logical" name="LZEROZ"> F  </i>
   </separator>
   <separator name="electronic exchange-correlation" >
    <i type="logical" name="LASPH"> F  </i>
    <i type="logical" name="LMETAGGA"> F  </i>
   </separator>
   <separator name="electronic convergence" >
    <i type="int" name="NELM">   200</i>
    <i type="int" name="NELMDL">     0</i>
    <i type="int" name="NELMIN">     2</i>
    <i name="ENINI">    500.00000000</i>
    <separator name="electronic convergence detail" >
     <i type="logical" name="LDIAG"> T  </i>
     <i type="logical" name="LSUBROT"> F  </i>
     <i name="WEIMIN">      0.00000000</i>
     <i name="EBREAK">      0.00000000</i>
     <i name="DEPER">      0.30000000</i>
     <i type="int" name="NRMM">     4</i>
     <i name="TIME">      0.40000000</i>
    </separator>
   </separator>
   <separator name="electronic mixer" >
    <i name="AMIX">      0.40000000</i>
    <i name="BMIX">      1.00000000</i>
    <i name="AMIN">      0.10000000</i>
    <i name="AMIX_MAG">      1.60000000</i>
    <i name="BMIX_MAG">      1.00000000</i>
    <separator name="electronic mixer details" >
     <i type="int" name="IMIX">     4</i>
     <i type="logical" name="MIXFIRST"> F  </i>
     <i type="int" name="MAXMIX">   -45</i>
     <i name="WC">    100.00000000</i>
     <i type="int" name="INIMIX">     1</i>
     <i type="int" name="MIXPRE">     1</i>
     <i type="int" name="MREMOVE">     5</i>
    </separator>
   </separator>
   <separator name="electronic dipolcorrection" >
    <i type="logical" name="LDIPOL"> F  </i>
    <i type="logical" name="LMONO"> F  </i>
    <i type="int" name="IDIPOL">     0</i>
    <i name="EPSILON">      1.00000000</i>
    <v name="DIPOL">   -100.00000000   -100.00000000   -100.00000000</v>
    <i name="EFIELD">      0.00000000</i>
   </separator>
  </separator>
  <separator name="grids" >
   <i type="int" name="NGX">    24</i>
   <i type="int" name="NGY">    24</i>
   <i type="int" name="NGZ">    36</i>
   <i type="int" name="NGXF">    48</i>
   <i type="int" name="NGYF">    48</i>
   <i type="int" name="NGZF">    72</i>
   <i type="logical" name="ADDGRID"> F  </i>
  </separator>
  <separator name="ionic" >
   <i type="int" name="NSW">     0</i>
   <i type="int" name="IBRION">    -1</i>
   <i type="int" name="MDALGO">     0</i>
   <i type="int" name="ISIF">     3</i>
   <i name="PSTRESS">      0.00000000</i>
   <i name="EDIFFG">      0.00100000</i>
   <i type="int" name="NFREE">     1</i>
   <i name="POTIM">      0.50000000</i>
   <i name="SMASS">     -3.00000000</i>
   <i name="SCALEE">      1.00000000</i>
  </separator>
  <separator name="ionic md" >
   <i name="TEBEG">      0.00010000</i>
   <i name="TEEND">      0.00010000</i>
   <i type="int" name="NBLOCK">     1</i>
   <i type="int" name="KBLOCK">     1</i>
   <i type="int" name="NPACO">   256</i>
   <i name="APACO">     16.00000000</i>
  </separator>
  <separator name="symmetry" >
   <i type="int" name="ISYM">     2</i>
   <i name="SYMPREC">      0.00001000</i>
  </separator>
  <separator name="dos" >
   <i type="int" name="LORBIT">    11</i>
   <v name="RWIGS">     -1.00000000     -1.00000000</v>
   <i type="int" name="NEDOS">   301</i>
   <i name="EMIN">     10.00000000</i>
   <i name="EMAX">    -10.00000000</i>
   <i name="EFERMI">      0.00000000</i>
  </separator>
  <separator name="writing" >
   <i type="int" name="NWRITE">     2</i>
   <i type="logical" name="LWAVE"> F  </i>
   <i type="logical" name="LDOWNSAMPLE"> F  </i>
   <i type="logical" name="LCHARG"> F  </i>
   <i type="logical" name="LPARD"> F  </i>
   <i type="logical" name="LVTOT"> F  </i>
   <i type="logical" name="LVHAR"> F  </i>
   <i type="logical" name="LELF"> F  </i>
   <i type="logical" name="LOPTICS"> F  </i>
   <v name="STM">      0.00000000      0.00000000      0.00000000      0.00000000      0.00000000      0.00000000      0.00000000</v>
  </separator>
  <separator name="performance" >
   <i type="int" name="NPAR">     2</i>
   <i type="int" name="NSIM">     4</i>
   <i type="int" name="NBLK">    -1</i>
   <i type="logical" name="LPLANE"> T  </i>
   <i type="logical" name="LSCALAPACK"> F  </i>
   <i type="logical" name="LSCAAWARE"> F  </i>
   <i type="logical" name="LSCALU"> F  </i>
   <i type="logical" name="LASYNC"> F  </i>
   <i type="logical" name="LORBITALREAL"> F  </i>
  </separator>
  <separator name="miscellaneous" >
   <i type="int" name="IDIOT">     3</i>
   <i type="int" name="ISPECIAL">     0</i>
   <i type="logical" name="LMUSIC"> F  </i>
   <v name="POMASS">     69.72300000     14.00100000</v>
   <v name="DARWINR">      0.00000000      0.00000000</v>
   <v name="DARWINV">      1.00000000      1.00000000</v>
   <i type="logical" name="LCORR"> T  </i>
  </separator>
  <i type="logical" name="GGA_COMPAT"> T  </i>
  <i type="logical" name="LBERRY"> F  </i>
  <i type="int" name="ICORELEVEL">     0</i>
  <i type="logical" name="LDAU"> T  </i>
  <v type="int" name="LDAUTYPE">     2</v>
  <v type="int" name="LDAUL">     2</v>
  <v name="LDAUU">      6.70000000</v>
  <v name="LDAUJ">      0.00000000</v>
  <i type="int" name="LDAUPRINT">     2</i>
  <i type="int" name="I_CONSTRAINED_M">     0</i>
  <separator name="electronic exchange-correlation" >
   <i type="string" name="GGA">PE</i>
   <i type="int" name="VOSKOWN">     0</i>
   <i type="logical" name="LHFCALC"> F  </i>
   <i type="string" name="PRECFOCK"></i>
   <i type="logical" name="LSYMGRAD"> F  </i>
   <i type="logical" name="LHFONE"> F  </i>
   <i type="logical" name="LRHFCALC"> F  </i>
   <i type="logical" name="LTHOMAS"> F  </i>
   <i type="logical" name="LMODELHF"> F  </i>
   <i name="ENCUT4O">     -1.00000000</i>
   <i type="int" name="EXXOEP">     0</i>
   <i type="int" name="FOURORBIT">     0</i>
   <i name="AEXX">      0.00000000</i>
   <i name="HFALPHA">      0.00000000</i>
   <i name="MCALPHA">      0.00000000</i>
   <i name="ALDAX">      1.00000000</i>
   <i name="AGGAX">      1.00000000</i>
   <i name="ALDAC">      1.00000000</i>
   <i name="AGGAC">      1.00000000</i>
   <i type="int" name="NKREDX">     1</i>
   <i type="int" name="NKREDY">     1</i>
   <i type="int" name="NKREDZ">     1</i>
   <i type="logical" name="SHIFTRED"> F  </i>
   <i type="logical" name="ODDONLY"> F  </i>
   <i type="logical" name="EVENONLY"> F  </i>
   <i type="int" name="LMAXFOCK">     0</i>
   <i type="int" name="NMAXFOCKAE">     0</i>
   <i type="logical" name="LFOCKAEDFT"> F  </i>
   <i name="HFSCREEN">      0.00000000</i>
   <i name="HFSCREENC">      0.00000000</i>
   <i type="int" name="NBANDSGWLOW">     0</i>
  </separator>
  <separator name="vdW DFT" >
   <i type="logical" name="LUSE_VDW"> F  </i>
   <i name="Zab_VDW">     -0.84910000</i>
   <i name="PARAM1">      0.12340000</i>
   <i name="PARAM2">      1.00000000</i>
   <i name="PARAM3">      0.00000000</i>
  </separator>
  <separator name="model GW" >
   <i type="int" name="MODEL_GW">     0</i>
   <i name="MODEL_EPS0">      6.11423480</i>
   <i name="MODEL_ALPHA">      1.00000000</i>
  </separator>
  <separator name="linear response parameters" >
   <i type="logical" name="LEPSILON"> F  </i>
   <i type="logical" name="LRPA"> F  </i>
   <i type="logical" name="LNABLA"> F  </i>
   <i type="logical" name="LVEL"> F  </i>
   <i type="int" name="KINTER">     0</i>
   <i name="CSHIFT">      0.10000000</i>
   <i name="OMEGAMAX">     -1.00000000</i>
   <i name="DEG_THRESHOLD">      0.00200000</i>
   <i name="RTIME">     -0.10000000</i>
   <i name="WPLASMAI">      0.00000000</i>
   <v name="DFIELD">      0.00000000      0.00000000      0.00000000</v>
   <v name="WPLASMA">      0.00000000      0.00000000      0.00000000      0.00000000      0.00000000      0.00000000      0.00000000      0.00000000      0.00000000</v>
  </separator>
  <separator name="orbital magnetization" >
   <i type="logical" name="NUCIND"> F  </i>
   <v name="MAGPOS">      0.00000000      0.00000000      0.00000000</v>
   <i type="logical" name="LNICSALL"> T  </i>
   <i type="logical" name="ORBITALMAG"> F  </i>
   <i type="logical" name="LMAGBLOCH"> F  </i>
   <i type="logical" name="LCHIMAG"> F  </i>
   <i type="logical" name="LGAUGE"> T  </i>
   <i type="int" name="MAGATOM">     0</i>
   <v name="MAGDIPOL">      0.00000000      0.00000000      0.00000000</v>
   <v name="AVECCONST">      0.00000000      0.00000000      0.00000000</v>
  </separator>
  <separator name="response functions" >
   <i type="logical" name="LADDER"> F  </i>
   <i type="logical" name="LRPAFORCE"> F  </i>
   <i type="logical" name="LFXC"> F  </i>
   <i type="logical" name="LHARTREE"> T  </i>
   <i type="int" name="IBSE">     0</i>
   <v type="int" name="KPOINT">    -1     0     0     0</v>
   <i type="logical" name="LTCTE"> F  </i>
   <i type="logical" name="LTETE"> F  </i>
   <i type="logical" name="LTRIPLET"> F  </i>
   <i type="logical" name="LFXCEPS"> F  </i>
   <i type="logical" name="LFXHEG"> F  </i>
   <i type="int" name="NATURALO">     2</i>
   <i type="logical" name="L2ORDER"> F  </i>
   <i type="logical" name="LMP2LT"> F  </i>
   <i type="logical" name="LUSEW"> F  </i>
   <i name="ENCUTGW">     -2.00000000</i>
   <i name="ENCUTGWSOFT">     -2.00000000</i>
   <i name="ENCUTLF">     -1.00000000</i>
   <i type="int" name="LMAXMP2">    -1</i>
   <i name="SCISSOR">      0.00000000</i>
   <i type="int" name="NOMEGA">     0</i>
   <i type="int" name="NOMEGAR">     0</i>
   <i type="int" name="NBANDSGW">    -1</i>
   <i type="int" name="NBANDSO">    -1</i>
   <i type="int" name="NBANDSV">    -1</i>
   <i type="int" name="NELM">   200</i>
   <i type="int" name="NELMHF">     1</i>
   <i type="int" name="DIM">     3</i>
   <i type="int" name="ANTIRES">     0</i>
   <i name="OMEGAMAX">    -30.00000000</i>
   <i name="OMEGAMIN">    -30.00000000</i>
   <i name="OMEGATL">   -200.00000000</i>
   <i type="int" name="OMEGAGRID">   140</i>
   <i name="CSHIFT">     -0.10000000</i>
   <i type="logical" name="SELFENERGY"> F  </i>
   <i type="logical" name="LSPECTRAL"> F  </i>
   <i type="logical" name="LSPECTRALGW"> F  </i>
   <i type="logical" name="LSINGLES"> F  </i>
   <i type="logical" name="LFERMIGW"> F  </i>
   <i type="logical" name="ODDONLYGW"> F  </i>
   <i type="logical" name="EVENONLYGW"> F  </i>
   <i type="int" name="NKREDLFX">     1</i>
   <i type="int" name="NKREDLFY">     1</i>
   <i type="int" name="NKREDLFZ">     1</i>
   <i type="int" name="MAXMEM">  2800</i>
   <i type="int" name="TELESCOPE">     0</i>
   <i type="int" name="TAUPAR">     1</i>
   <i type="int" name="OMEGAPAR">    -1</i>
   <i name="LAMBDA">      1.00000000</i>
  </separator>
  <separator name="External order field" >
   <i name="OFIELD_KAPPA">      0.00000000</i>
   <v name="OFIELD_K">      0.00000000      0.00000000      0.00000000</v>
   <i name="OFIELD_Q6_NEAR">      0.00000000</i>
   <i name="OFIELD_Q6_FAR">      0.00000000</i>
   <i name="OFIELD_A">      0.00000000</i>
  </separator>
 </parameters>
 <atominfo>
  <atoms>       4 </atoms>
  <types>       2 </types>
  <array name="atoms" >
   <dimension dim="1">ion</dimension>
   <field type="string">element</field>
   <field type="int">atomtype</field>
   <set>
    <rc><c>Ga</c><c>   1</c></rc>
    <rc><c>Ga</c><c>   1</c></rc>
    <rc><c>N </c><c>   2</c></rc>
    <rc><c>N </c><c>   2</c></rc>
   </set>
  </array>
  <array name="atomtypes" >
   <dimension dim="1">type</dimension>
   <field type="int">atomspertype</field>
   <field type="string">element</field>
   <field>mass</field>
   <field>valence</field>
   <field type="string">pseudopotential</field>
   <set>
    <rc><c>   2</c><c>Ga</c><c>     69.72300000</c><c>     13.00000000</c><c>  PAW_PBE Ga_d 06Jul2010                </c></rc>
    <rc><c>   2</c><c>N </c><c>     14.00100000</c><c>      5.00000000</c><c>  PAW_PBE N 08Apr2002                   </c></rc>
   </set>
  </array>
 </atominfo>
 <structure name="initialpos" >
  <crystal>
   <varray name="basis" >
    <v>       3.06986737       0.00000000       0.00000000 </v>
    <v>      -1.53493368       2.65858313       0.00000000 </v>
    <v>       0.00000000       0.00000000       4.99437326 </v>
   </varray>
   <i name="volume">     40.76156532 </i>
   <varray name="rec_basis" >
    <v>       0.32574697       0.18807010       0.00000000 </v>
    <v>       0.00000000       0.37614020       0.00000000 </v>
    <v>       0.00000000       0.00000000       0.20022532 </v>
   </varray>
  </crystal>
  <varray name="positions" >
   <v>       0.66666702       0.33333299       0.49883860 </v>
   <v>       0.33333298       0.66666702       0.99883865 </v>
   <v>       0.66666702       0.33333299       0.87616137 </v>
   <v>       0.33333298       0.66666702       0.37616137 </v>
  </varray>
 </structure>
