   32   32   10    1
  0.1019039E+02  0.6139734E-09  0.6139734E-09  0.9988746E-09  0.5000000E-15
  1.000000000000000E-004
  CAR 
 /net/hulk/PMD/skwon/GaN/Wurtzite/vasp/U 
    288    490    172
