--------------------------------------------------------------------------
[[6366,1],0]: A high-performance Open MPI point-to-point messaging module
was unable to find any relevant network interfaces:

Module: OpenFabrics (openib)
  Host: node-3-12

Another transport will be used instead, although this may result in
lower performance.
--------------------------------------------------------------------------
 running on    8 total cores
 distrk:  each k-point on    8 cores,    1 groups
 distr:  one band on    4 cores,    2 groups
 using from now: INCAR     
 vasp.5.4.4.18Apr17-6-g9f103f2a35 (build Jun 24 2018 22:36:06) complex          
  
 POSCAR found type information on POSCAR  Ga N 
 POSCAR found :  2 types and      32 ions
 LDA part: xc-table for Pade appr. of Perdew
 POSCAR, INCAR and KPOINTS ok, starting setup
 FFT: planning ...
 WAVECAR not read
 WARNING: random wavefunctions but no delay for mixing, default for NELMDL
 entering main loop
       N       E                     dE             d eps       ncg     rms          rms(c)
DAV:   1     0.515735471534E+04    0.51574E+04   -0.10270E+05177000   0.327E+03
DAV:   2     0.111273954201E+04   -0.40446E+04   -0.38062E+04168560   0.928E+02
DAV:   3    -0.810167232104E+02   -0.11938E+04   -0.11173E+04211104   0.314E+02
DAV:   4    -0.229591284740E+03   -0.14857E+03   -0.14579E+03199216   0.116E+02
