--------------------------------------------------------------------------
[[26773,1],2]: A high-performance Open MPI point-to-point messaging module
was unable to find any relevant network interfaces:

Module: OpenFabrics (openib)
  Host: node-3-14

Another transport will be used instead, although this may result in
lower performance.
--------------------------------------------------------------------------
 running on    8 total cores
 distrk:  each k-point on    8 cores,    1 groups
 distr:  one band on    4 cores,    2 groups
 using from now: INCAR     
 vasp.5.4.4.18Apr17-6-g9f103f2a35 (build Jun 24 2018 22:36:06) complex          
  
 POSCAR found type information on POSCAR  Ga N 
 POSCAR found :  2 types and      32 ions
 LDA part: xc-table for Pade appr. of Perdew
 POSCAR, INCAR and KPOINTS ok, starting setup
 FFT: planning ...
 WAVECAR not read
 WARNING: random wavefunctions but no delay for mixing, default for NELMDL
 entering main loop
       N       E                     dE             d eps       ncg     rms          rms(c)
DAV:   1     0.515735471534E+04    0.51574E+04   -0.10270E+05177000   0.327E+03
DAV:   2     0.111273954202E+04   -0.40446E+04   -0.38062E+04168560   0.928E+02
DAV:   3    -0.810167232103E+02   -0.11938E+04   -0.11173E+04211104   0.314E+02
DAV:   4    -0.229591284740E+03   -0.14857E+03   -0.14579E+03199216   0.116E+02
DAV:   5    -0.240817088886E+03   -0.11226E+02   -0.11170E+02237224   0.334E+01    0.322E+01
RMM:   6    -0.206960940562E+03    0.33856E+02   -0.12310E+02210572   0.216E+01    0.109E+01
RMM:   7    -0.207643169453E+03   -0.68223E+00   -0.12400E+01202959   0.951E+00    0.736E+00
RMM:   8    -0.207783151879E+03   -0.13998E+00   -0.13378E+00211357   0.424E+00    0.805E-01
RMM:   9    -0.207774785823E+03    0.83661E-02   -0.20944E-01209549   0.148E+00    0.328E-01
RMM:  10    -0.207780648593E+03   -0.58628E-02   -0.46178E-02208185   0.497E-01    0.170E-01
RMM:  11    -0.207781440631E+03   -0.79204E-03   -0.14103E-02211289   0.395E-01    0.150E-01
RMM:  12    -0.207780675763E+03    0.76487E-03   -0.36896E-03231244   0.153E-01    0.207E-02
RMM:  13    -0.207780696616E+03   -0.20853E-04   -0.25442E-04242380   0.429E-02    0.175E-02
