 vasp.5.4.4.18Apr17-6-g9f103f2a35 (build Jun 24 2018 22:36:06) complex          
  
 executed on             LinuxIFC date 2020.08.18  23:24:07
 running on    8 total cores
 distrk:  each k-point on    8 cores,    1 groups
 distr:  one band on NCORES_PER_BAND=   4 cores,    2 groups
