 vasp.5.4.4.18Apr17-6-g9f103f2a35 (build Jun 24 2018 22:36:06) complex          
  
 executed on             LinuxIFC date 2020.08.19  14:11:17
 running on    8 total cores
 distrk:  each k-point on    8 cores,    1 groups
 distr:  one band on NCORES_PER_BAND=   4 cores,    2 groups


--------------------------------------------------------------------------------------------------------


 INCAR:
 POTCAR:    PAW_PBE Ga_d 06Jul2010                
 POTCAR:    PAW_PBE N 08Apr2002                   
 POTCAR:    PAW_PBE Ga_d 06Jul2010                
   VRHFIN =Ga: s2p1                                                             
   LEXCH  = PE                                                                  
   EATOM  =  2148.8298 eV,  157.9345 Ry                                         
                                                                                
   TITEL  = PAW_PBE Ga_d 06Jul2010                                              
   LULTRA =        F    use ultrasoft PP ?                                      
   IUNSCR =        1    unscreen: 0-lin 1-nonlin 2-no                           
   RPACOR =    1.700    partial core radius                                     
   POMASS =   69.723; ZVAL   =   13.000    mass and valenz                      
   RCORE  =    2.300    outmost cutoff radius                                   
   RWIGS  =    2.300; RWIGS  =    1.217    wigner-seitz radius (au A)           
   ENMAX  =  282.691; ENMIN  =  212.018 eV                                      
   ICORE  =        3    local potential                                         
   LCOR   =        T    correct aug charges                                     
   LPAW   =        T    paw PP                                                  
   EAUG   =  490.690                                                            
   DEXC   =    0.000                                                            
   RMAX   =    2.341    core radius for proj-oper                               
   RAUG   =    1.300    factor for augmentation sphere                          
   RDEP   =    2.413    radius for radial grids                                 
   RDEPT  =    1.856    core radius for aug-charge                              
                                                                                
   Atomic configuration                                                         
    9 entries                                                                   
     n  l   j            E        occ.                                          
     1  0  0.50    -10228.7831   2.0000                                         
     2  0  0.50     -1262.1604   2.0000                                         
     2  1  1.50     -1098.6333   6.0000                                         
     3  0  0.50      -148.1110   2.0000                                         
     3  1  1.50       -98.8436   6.0000                                         
     3  2  2.50       -19.1549  10.0000                                         
     4  0  0.50        -8.9483   2.0000                                         
     4  1  0.50        -2.5791   1.0000                                         
     4  3  2.50        -2.7416   0.0000                                         
   Description                                                                  
     l       E           TYP  RCUT    TYP  RCUT                                 
     2    -19.1549037     23  2.300                                             
     2     -5.4423304     23  2.300                                             
     0     -8.9483111     23  2.300                                             
     0     68.0291300     23  2.300                                             
     1     -2.5790802     23  2.100                                             
     1     81.6349560     23  2.300                                             
     3      6.8029130     23  2.300                                             
  local pseudopotential read in
  partial core-charges read in
  partial kinetic energy density read in
  atomic valenz-charges read in
  non local Contribution for L=           2  read in
    real space projection operators read in
  non local Contribution for L=           2  read in
    real space projection operators read in
  non local Contribution for L=           0  read in
    real space projection operators read in
  non local Contribution for L=           0  read in
    real space projection operators read in
  non local Contribution for L=           1  read in
    real space projection operators read in
  non local Contribution for L=           1  read in
    real space projection operators read in
    PAW grid and wavefunctions read in
 
   number of l-projection  operators is LMAX  =           6
   number of lm-projection operators is LMMAX =          18
 
 POTCAR:    PAW_PBE N 08Apr2002                   
   VRHFIN =N: s2p3                                                              
   LEXCH  = PE                                                                  
   EATOM  =   264.5486 eV,   19.4438 Ry                                         
                                                                                
   TITEL  = PAW_PBE N 08Apr2002                                                 
   LULTRA =        F    use ultrasoft PP ?                                      
   IUNSCR =        1    unscreen: 0-lin 1-nonlin 2-no                           
   RPACOR =    1.200    partial core radius                                     
   POMASS =   14.001; ZVAL   =    5.000    mass and valenz                      
   RCORE  =    1.500    outmost cutoff radius                                   
   RWIGS  =    1.400; RWIGS  =    0.741    wigner-seitz radius (au A)           
   ENMAX  =  400.000; ENMIN  =  300.000 eV                                      
   ICORE  =        2    local potential                                         
   LCOR   =        T    correct aug charges                                     
   LPAW   =        T    paw PP                                                  
   EAUG   =  627.112                                                            
   DEXC   =    0.000                                                            
   RMAX   =    1.529    core radius for proj-oper                               
   RAUG   =    1.300    factor for augmentation sphere                          
   RDEP   =    1.514    radius for radial grids                                 
   RDEPT  =    1.338    core radius for aug-charge                              
                                                                                
   Atomic configuration                                                         
    4 entries                                                                   
     n  l   j            E        occ.                                          
     1  0  0.50      -384.7179   2.0000                                         
     2  0  0.50       -18.5828   2.0000                                         
     2  1  0.50        -7.0898   3.0000                                         
     3  2  1.50        -6.8029   0.0000                                         
   Description                                                                  
     l       E           TYP  RCUT    TYP  RCUT                                 
     0    -18.5828119     23  1.200                                             
     0    -13.5018863     23  1.200                                             
     1     -7.0897853     23  1.500                                             
     1      9.5240782     23  1.500                                             
     2     -6.8029130      7  1.500                                             
  local pseudopotential read in
  partial core-charges read in
  partial kinetic energy density read in
  atomic valenz-charges read in
  non local Contribution for L=           0  read in
    real space projection operators read in
  non local Contribution for L=           0  read in
    real space projection operators read in
  non local Contribution for L=           1  read in
    real space projection operators read in
  non local Contribution for L=           1  read in
    real space projection operators read in
    PAW grid and wavefunctions read in
 
   number of l-projection  operators is LMAX  =           4
   number of lm-projection operators is LMMAX =           8
 
 Optimization of the real space projectors (new method)

 maximal supplied QI-value         = 16.25
 optimisation between [QCUT,QGAM] = [ 11.38, 22.75] = [ 36.24,144.96] Ry 
 Optimized for a Real-space Cutoff    1.43 Angstroem

   l    n(q)    QCUT    max X(q) W(low)/X(q) W(high)/X(q)  e(spline) 
   2      9    11.376     7.143    0.28E-04    0.12E-03    0.13E-06
   2      9    11.376     5.586    0.74E-04    0.22E-03    0.21E-06
   0     10    11.376    12.382    0.35E-04    0.14E-04    0.32E-07
   0     10    11.376     6.622    0.55E-04    0.29E-04    0.68E-07
   1      9    11.376     7.935    0.24E-03    0.22E-03    0.14E-06
   1      9    11.376     2.425    0.20E-03    0.19E-03    0.14E-06
 Optimization of the real space projectors (new method)

 maximal supplied QI-value         = 25.13
 optimisation between [QCUT,QGAM] = [ 11.31, 22.87] = [ 35.82,146.48] Ry 
 Optimized for a Real-space Cutoff    1.43 Angstroem

   l    n(q)    QCUT    max X(q) W(low)/X(q) W(high)/X(q)  e(spline) 
   0     10    11.310    79.467    0.42E-04    0.81E-04    0.60E-06
   0     10    11.310    66.151    0.40E-04    0.81E-04    0.60E-06
   1      9    11.310    17.416    0.14E-03    0.88E-04    0.14E-05
   1      9    11.310    12.382    0.15E-03    0.93E-04    0.14E-05
  PAW_PBE Ga_d 06Jul2010                :
 energy of atom  1       EATOM=-2148.8298
 kinetic energy error for atom=    0.0026 (will be added to EATOM!!)
  PAW_PBE N 08Apr2002                   :
 energy of atom  2       EATOM= -264.5486
 kinetic energy error for atom=    0.0138 (will be added to EATOM!!)
 
 
 POSCAR: /net/hulk/PMD/skwon/GaN/Wurtzite/vasp/U_
  positions in direct lattice
  No initial velocities read in
 exchange correlation table for  LEXCH =        8
   RHO(1)=    0.500       N(1)  =     2000
   RHO(2)=  100.500       N(2)  =     4000
 


--------------------------------------------------------------------------------------------------------


 ion  position               nearest neighbor table
   1  0.333  0.167  0.249-  27 1.88  29 1.88  25 1.88  17 1.88
   2  0.333  0.167  0.749-  28 1.88  30 1.88  26 1.88  18 1.88
   3  0.333  0.667  0.249-  25 1.88  31 1.88  27 1.88  19 1.88
   4  0.333  0.667  0.749-  26 1.88  32 1.88  28 1.88  20 1.88
   5  0.833  0.167  0.249-  31 1.88  25 1.88  29 1.88  21 1.88
   6  0.833  0.167  0.749-  32 1.88  26 1.88  30 1.88  22 1.88
   7  0.833  0.667  0.249-  27 1.88  29 1.88  31 1.88  23 1.88
   8  0.833  0.667  0.749-  28 1.88  30 1.88  32 1.88  24 1.88
   9  0.167  0.333  0.499-  21 1.88  19 1.88  17 1.88  26 1.88
  10  0.167  0.333  0.999-  22 1.88  20 1.88  18 1.88  25 1.88
  11  0.167  0.833  0.499-  17 1.88  23 1.88  19 1.88  28 1.88
  12  0.167  0.833  0.999-  18 1.88  24 1.88  20 1.88  27 1.88
  13  0.667  0.333  0.499-  23 1.88  17 1.88  21 1.88  30 1.88
  14  0.667  0.333  0.999-  24 1.88  18 1.88  22 1.88  29 1.88
  15  0.667  0.833  0.499-  21 1.88  19 1.88  23 1.88  32 1.88
  16  0.667  0.833  0.999-  22 1.88  20 1.88  24 1.88  31 1.88
  17  0.333  0.167  0.438-  11 1.88  13 1.88   9 1.88   1 1.88
  18  0.333  0.167  0.938-  12 1.88  14 1.88  10 1.88   2 1.88
  19  0.333  0.667  0.438-   9 1.88  15 1.88  11 1.88   3 1.88
  20  0.333  0.667  0.938-  10 1.88  16 1.88  12 1.88   4 1.88
  21  0.833  0.167  0.438-  15 1.88   9 1.88  13 1.88   5 1.88
  22  0.833  0.167  0.938-  16 1.88  10 1.88  14 1.88   6 1.88
  23  0.833  0.667  0.438-  11 1.88  13 1.88  15 1.88   7 1.88
  24  0.833  0.667  0.938-  12 1.88  14 1.88  16 1.88   8 1.88
  25  0.167  0.333  0.188-   5 1.88   3 1.88   1 1.88  10 1.88
  26  0.167  0.333  0.688-   6 1.88   4 1.88   2 1.88   9 1.88
  27  0.167  0.833  0.188-   1 1.88   7 1.88   3 1.88  12 1.88
  28  0.167  0.833  0.688-   2 1.88   8 1.88   4 1.88  11 1.88
  29  0.667  0.333  0.188-   7 1.88   1 1.88   5 1.88  14 1.88
  30  0.667  0.333  0.688-   8 1.88   2 1.88   6 1.88  13 1.88
  31  0.667  0.833  0.188-   5 1.88   3 1.88   7 1.88  16 1.88
  32  0.667  0.833  0.688-   6 1.88   4 1.88   8 1.88  15 1.88
 
  LATTYP: Found a hexagonal cell.
 ALAT       =     6.1397337914
 C/A-ratio  =     1.6269020822
  
  Lattice vectors:
  
 A1 = (   6.1397337914,   0.0000000000,   0.0000000000)
 A2 = (  -3.0698668957,   5.3171654358,   0.0000000000)
 A3 = (   0.0000000000,   0.0000000000,   9.9887456894)


Analysis of symmetry for initial positions (statically):
=====================================================================
 Subroutine PRICEL returns following result:
 
  LATTYP: Found a hexagonal cell.
 ALAT       =     3.0698667575
 C/A-ratio  =     1.6269021554
  
  Lattice vectors:
  
 A1 = (   3.0698668036,   0.0000000000,   0.0000000000)
 A2 = (  -1.5349333558,   2.6585825584,   0.0000000000)
 A3 = (   0.0000000000,   0.0000000000,   4.9943728447)
 
   8 primitive cells build up your supercell.
 

 Routine SETGRP: Setting up the symmetry group for a 
 hexagonal supercell.


 Subroutine GETGRP returns: Found 12 space group operations
 (whereof  6 operations were pure point group operations)
 out of a pool of 24 trial point group operations.


The static configuration has the point symmetry C_3v.
 The point group associated with its full space group is C_6v.


Analysis of symmetry for dynamics (positions and initial velocities):
=====================================================================
 Subroutine PRICEL returns following result:
 
  LATTYP: Found a hexagonal cell.
 ALAT       =     3.0698667575
 C/A-ratio  =     1.6269021554
  
  Lattice vectors:
  
 A1 = (   3.0698668036,   0.0000000000,   0.0000000000)
 A2 = (  -1.5349333558,   2.6585825584,   0.0000000000)
 A3 = (   0.0000000000,   0.0000000000,   4.9943728447)
 
   8 primitive cells build up your supercell.
 

 Routine SETGRP: Setting up the symmetry group for a 
 hexagonal supercell.


 Subroutine GETGRP returns: Found 12 space group operations
 (whereof  6 operations were pure point group operations)
 out of a pool of 24 trial point group operations.


The dynamic configuration has the point symmetry C_3v.
 The point group associated with its full space group is C_6v.


 Subroutine INISYM returns: Found 12 space group operations
 (whereof  6 operations are pure point group operations),
 and found     8 'primitive' translations

 
 
 KPOINTS: k-points for bandstructure G-M-K-G-A-L-H
  interpolating k-points between supplied coordinates
  k-points in reciprocal lattice
Space group operators:
 irot       det(A)        alpha          n_x          n_y          n_z        tau_x        tau_y        tau_z
    1     1.000000     0.000000     1.000000     0.000000     0.000000     0.000000     0.000000     0.000000
    2     1.000000   120.000000     0.000000     0.000000    -1.000000     0.000000     0.000000     0.000000
    3     1.000000   120.000000     0.000000     0.000000     1.000000     0.000000     0.000000     0.000000
    4    -1.000000   180.000000     1.000000     0.000000     0.000000     0.000000     0.000000     0.000000
    5    -1.000000   180.000000     0.500000    -0.866025     0.000000     0.000000     0.000000     0.000000
    6    -1.000000   180.000000    -0.500000    -0.866025     0.000000     0.000000     0.000000     0.000000
    7     1.000000    60.000000     0.000000     0.000000    -1.000000     0.000000     0.000000     0.250000
    8     1.000000   180.000000     0.000000     0.000000     1.000000     0.000000     0.000000     0.250000
    9     1.000000    60.000000     0.000000     0.000000     1.000000     0.000000     0.000005     0.250000
   10    -1.000000   180.000000     0.866025    -0.500000     0.000000     0.000000     0.000000     0.250000
   11    -1.000000   180.000000     0.000000     1.000000     0.000000     0.000000     0.000000     0.250000
   12    -1.000000   180.000000     0.866025     0.500000     0.000000     0.000000     0.000005     0.250000


--------------------------------------------------------------------------------------------------------




 Dimension of arrays:
   k-points           NKPTS =    490   k-points in BZ     NKDIM =    490   number of bands    NBANDS=    172
   number of dos      NEDOS =    301   number of ions     NIONS =     32
   non local maximal  LDIM  =      6   non local SUM 2l+1 LMDIM =     18
   total plane-waves  NPLWV = 184320
   max r-space proj   IRMAX =   6994   max aug-charges    IRDMAX=  21618
   dimension x,y,z NGX =    48 NGY =   48 NGZ =   80
   dimension x,y,z NGXF=    96 NGYF=   96 NGZF=  160
   support grid    NGXF=    96 NGYF=   96 NGZF=  160
   ions per type =              16  16
   NGX,Y,Z   is equivalent  to a cutoff of  13.00, 13.00, 13.31 a.u.
   NGXF,Y,Z  is equivalent  to a cutoff of  25.99, 25.99, 26.63 a.u.

 SYSTEM =  /net/hulk/PMD/skwon/GaN/Wurtzite/vasp/U 
 POSCAR =  /net/hulk/PMD/skwon/GaN/Wurtzite/vasp/U_

 Startparameter for this run:
   NWRITE =      2    write-flag & timer
   PREC   = accura    normal or accurate (medium, high low for compatibility)
   ISTART =      0    job   : 0-new  1-cont  2-samecut
   ICHARG =      2    charge: 1-file 2-atom 10-const
   ISPIN  =      1    spin polarized calculation?
   LNONCOLLINEAR =      F non collinear calculations
   LSORBIT =      F    spin-orbit coupling
   INIWAV =      1    electr: 0-lowe 1-rand  2-diag
   LASPH  =      F    aspherical Exc in radial PAW
   METAGGA=      F    non-selfconsistent MetaGGA calc.

 Electronic Relaxation 1
   ENCUT  =  500.0 eV  36.75 Ry    6.06 a.u.  11.19 11.19 18.21*2*pi/ulx,y,z
   ENINI  =  500.0     initial cutoff
   ENAUG  =  627.1 eV  augmentation charge cutoff
   NELM   =    200;   NELMIN=  2; NELMDL=  0     # of ELM steps 
   EDIFF  = 0.1E-06   stopping-criterion for ELM
   LREAL  =      T    real-space projection
   NLSPLINE    = F    spline interpolate recip. space projectors
   LCOMPAT=      F    compatible to vasp.4.4
   GGA_COMPAT  = T    GGA compatible to vasp.4.4-vasp.4.6
   LMAXPAW     = -100 max onsite density
   LMAXMIX     =    4 max onsite mixed and CHGCAR
   VOSKOWN=      0    Vosko Wilk Nusair interpolation
   ROPT   =   -0.00025  -0.00025
 Ionic relaxation
   EDIFFG = 0.1E-02   stopping-criterion for IOM
   NSW    =     10    number of steps for IOM
   NBLOCK =      1;   KBLOCK =     10    inner block; outer block 
   IBRION =      2    ionic relax: 0-MD 1-quasi-New 2-CG
   NFREE  =      1    steps in history (QN), initial steepest desc. (CG)
   ISIF   =      3    stress and relaxation
   IWAVPR =     11    prediction:  0-non 1-charg 2-wave 3-comb
   ISYM   =      2    0-nonsym 1-usesym 2-fastsym
   LCORR  =      T    Harris-Foulkes like correction to forces

   POTIM  = 0.5000    time-step for ionic-motion
   TEIN   =    0.0    initial temperature
   TEBEG  =    0.0;   TEEND  =   0.0 temperature during run
   SMASS  =  -3.00    Nose mass-parameter (am)
   estimated Nose-frequenzy (Omega)   =  0.10E-29 period in steps =****** mass=  -0.861E-27a.u.
   SCALEE = 1.0000    scale energy and forces
   NPACO  =    256;   APACO  = 16.0  distance and # of slots for P.C.
   PSTRESS=    0.0 pullay stress

  Mass of Ions in am
   POMASS =  69.72 14.00
  Ionic Valenz
   ZVAL   =  13.00  5.00
  Atomic Wigner-Seitz radii
   RWIGS  =  -1.00 -1.00
  virtual crystal weights 
   VCA    =   1.00  1.00
   NELECT =     288.0000    total number of electrons
   NUPDOWN=      -1.0000    fix difference up-down

 DOS related values:
   EMIN   =  10.00;   EMAX   =-10.00  energy-range for DOS
   EFERMI =   0.00
   ISMEAR =     0;   SIGMA  =   0.03  broadening in eV -4-tet -1-fermi 0-gaus

 Electronic relaxation 2 (details)
   IALGO  =     68    algorithm
   LDIAG  =      T    sub-space diagonalisation (order eigenvalues)
   LSUBROT=      F    optimize rotation matrix (better conditioning)
   TURBO    =      0    0=normal 1=particle mesh
   IRESTART =      0    0=no restart 2=restart with 2 vectors
   NREBOOT  =      0    no. of reboots
   NMIN     =      0    reboot dimension
   EREF     =   0.00    reference energy to select bands
   IMIX   =      4    mixing-type and parameters
     AMIX     =   0.40;   BMIX     =  1.00
     AMIX_MAG =   1.60;   BMIX_MAG =  1.00
     AMIN     =   0.10
     WC   =   100.;   INIMIX=   1;  MIXPRE=   1;  MAXMIX= -45

 Intra band minimization:
   WEIMIN = 0.0010     energy-eigenvalue tresh-hold
   EBREAK =  0.15E-09  absolut break condition
   DEPER  =   0.30     relativ break condition  

   TIME   =   0.40     timestep for ELM

  volume/ion in A,a.u.               =      10.19        68.77
  Fermi-wavevector in a.u.,A,eV,Ry     =   1.570696  2.968185 33.566736  2.467086
  Thomas-Fermi vector in A             =   2.672391
 
 Write flags
   LWAVE        =      F    write WAVECAR
   LDOWNSAMPLE  =      F    k-point downsampling of WAVECAR
   LCHARG       =      F    write CHGCAR
   LVTOT        =      F    write LOCPOT, total local potential
   LVHAR        =      F    write LOCPOT, Hartree potential only
   LELF         =      F    write electronic localiz. function (ELF)
   LORBIT       =     11    0 simple, 1 ext, 2 COOP (PROOUT), +10 PAW based schemes


 Dipole corrections
   LMONO  =      F    monopole corrections only (constant potential shift)
   LDIPOL =      F    correct potential (dipole corrections)
   IDIPOL =      0    1-x, 2-y, 3-z, 4-all directions 
   EPSILON=  1.0000000 bulk dielectric constant

 LDA+U is selected, type is set to LDAUTYPE =  2
   angular momentum for each species LDAUL =     2   -1
   U (eV)           for each species LDAUU =   6.7  0.0
   J (eV)           for each species LDAUJ =   0.0  0.0
 Exchange correlation treatment:
   GGA     =    PE    GGA type
   LEXCH   =     8    internal setting for exchange type
   VOSKOWN=      0    Vosko Wilk Nusair interpolation
   LHFCALC =     F    Hartree Fock is set to
   LHFONE  =     F    Hartree Fock one center treatment
   AEXX    =    0.0000 exact exchange contribution

 Linear response parameters
   LEPSILON=     F    determine dielectric tensor
   LRPA    =     F    only Hartree local field effects (RPA)
   LNABLA  =     F    use nabla operator in PAW spheres
   LVEL    =     F    velocity operator in full k-point grid
   LINTERFAST=   F  fast interpolation
   KINTER  =     0    interpolate to denser k-point grid
   CSHIFT  =0.1000    complex shift for real part using Kramers Kronig
   OMEGAMAX=  -1.0    maximum frequency
   DEG_THRESHOLD= 0.2000000E-02 threshold for treating states as degnerate
   RTIME   =   -0.100 relaxation time in fs
  (WPLASMAI=    0.000 imaginary part of plasma frequency in eV, 0.658/RTIME)
   DFIELD  = 0.0000000 0.0000000 0.0000000 field for delta impulse in time
 
 Orbital magnetization related:
   ORBITALMAG=     F  switch on orbital magnetization
   LCHIMAG   =     F  perturbation theory with respect to B field
   DQ        =  0.001000  dq finite difference perturbation B field
   LLRAUG    =     F  two centre corrections for induced B field



--------------------------------------------------------------------------------------------------------


 conjugate gradient relaxation of ions
 charge density and potential will be updated during run
 non-spin polarized calculation
 RMM-DIIS sequential band-by-band and
  variant of blocked Davidson during initial phase
 perform sub-space diagonalisation
    before iterative eigenvector-optimisation
 modified Broyden-mixing scheme, WC =      100.0
 initial mixing is a Kerker type mixing with AMIX =  0.4000 and BMIX =      1.0000
 Hartree-type preconditioning will be used
 using additional bands           28
 real space projection scheme for non local part
 use partial core corrections
 calculate Harris-corrections to forces 
   (improved forces if not selfconsistent)
 use gradient corrections 
 use of overlap-Matrix (Vanderbilt PP)
 Gauss-broadening in eV      SIGMA  =   0.03


--------------------------------------------------------------------------------------------------------


  energy-cutoff  :      500.00
  volume of cell :      326.09
      direct lattice vectors                 reciprocal lattice vectors
     6.139733791  0.000000000  0.000000000     0.162873511  0.094035065  0.000000000
    -3.069866896  5.317165436  0.000000000     0.000000000  0.188070131  0.000000000
     0.000000000  0.000000000  9.988745689     0.000000000  0.000000000  0.100112670

  length of vectors
     6.139733791  6.139733791  9.988745689     0.188070131  0.188070131  0.100112670


 
 k-points in units of 2pi/SCALE and weight: k-points for bandstructure G-M-K-G-A-L-H
   0.00000000  0.00000000  0.00000000       0.002
   0.00118024  0.00068141  0.00000000       0.002
   0.00236049  0.00136283  0.00000000       0.002
   0.00354073  0.00204424  0.00000000       0.002
   0.00472097  0.00272565  0.00000000       0.002
   0.00590121  0.00340707  0.00000000       0.002
   0.00708146  0.00408848  0.00000000       0.002
   0.00826170  0.00476989  0.00000000       0.002
   0.00944194  0.00545131  0.00000000       0.002
   0.01062219  0.00613272  0.00000000       0.002
   0.01180243  0.00681414  0.00000000       0.002
   0.01298267  0.00749555  0.00000000       0.002
   0.01416291  0.00817696  0.00000000       0.002
   0.01534316  0.00885838  0.00000000       0.002
   0.01652340  0.00953979  0.00000000       0.002
   0.01770364  0.01022120  0.00000000       0.002
   0.01888389  0.01090262  0.00000000       0.002
   0.02006413  0.01158403  0.00000000       0.002
   0.02124437  0.01226544  0.00000000       0.002
   0.02242461  0.01294686  0.00000000       0.002
   0.02360486  0.01362827  0.00000000       0.002
   0.02478510  0.01430968  0.00000000       0.002
   0.02596534  0.01499110  0.00000000       0.002
   0.02714559  0.01567251  0.00000000       0.002
   0.02832583  0.01635392  0.00000000       0.002
   0.02950607  0.01703534  0.00000000       0.002
   0.03068631  0.01771675  0.00000000       0.002
   0.03186656  0.01839816  0.00000000       0.002
   0.03304680  0.01907958  0.00000000       0.002
   0.03422704  0.01976099  0.00000000       0.002
   0.03540729  0.02044241  0.00000000       0.002
   0.03658753  0.02112382  0.00000000       0.002
   0.03776777  0.02180523  0.00000000       0.002
   0.03894801  0.02248665  0.00000000       0.002
   0.04012826  0.02316806  0.00000000       0.002
   0.04130850  0.02384947  0.00000000       0.002
   0.04248874  0.02453089  0.00000000       0.002
   0.04366898  0.02521230  0.00000000       0.002
   0.04484923  0.02589371  0.00000000       0.002
   0.04602947  0.02657513  0.00000000       0.002
   0.04720971  0.02725654  0.00000000       0.002
   0.04838996  0.02793795  0.00000000       0.002
   0.04957020  0.02861937  0.00000000       0.002
   0.05075044  0.02930078  0.00000000       0.002
   0.05193068  0.02998219  0.00000000       0.002
   0.05311093  0.03066361  0.00000000       0.002
   0.05429117  0.03134502  0.00000000       0.002
   0.05547141  0.03202644  0.00000000       0.002
   0.05665166  0.03270785  0.00000000       0.002
   0.05783190  0.03338926  0.00000000       0.002
   0.05901214  0.03407068  0.00000000       0.002
   0.06019238  0.03475209  0.00000000       0.002
   0.06137263  0.03543350  0.00000000       0.002
   0.06255287  0.03611492  0.00000000       0.002
   0.06373311  0.03679633  0.00000000       0.002
   0.06491336  0.03747774  0.00000000       0.002
   0.06609360  0.03815916  0.00000000       0.002
   0.06727384  0.03884057  0.00000000       0.002
   0.06845408  0.03952198  0.00000000       0.002
   0.06963433  0.04020340  0.00000000       0.002
   0.07081457  0.04088481  0.00000000       0.002
   0.07199481  0.04156622  0.00000000       0.002
   0.07317506  0.04224764  0.00000000       0.002
   0.07435530  0.04292905  0.00000000       0.002
   0.07553554  0.04361047  0.00000000       0.002
   0.07671578  0.04429188  0.00000000       0.002
   0.07789603  0.04497329  0.00000000       0.002
   0.07907627  0.04565471  0.00000000       0.002
   0.08025651  0.04633612  0.00000000       0.002
   0.08143676  0.04701753  0.00000000       0.002
   0.08143676  0.04701753  0.00000000       0.002
   0.08104333  0.04769893  0.00000000       0.002
   0.08064991  0.04838033  0.00000000       0.002
   0.08025649  0.04906173  0.00000000       0.002
   0.07986307  0.04974313  0.00000000       0.002
   0.07946964  0.05042453  0.00000000       0.002
   0.07907622  0.05110593  0.00000000       0.002
   0.07868280  0.05178733  0.00000000       0.002
   0.07828938  0.05246873  0.00000000       0.002
   0.07789596  0.05315013  0.00000000       0.002
   0.07750253  0.05383153  0.00000000       0.002
   0.07710911  0.05451293  0.00000000       0.002
   0.07671569  0.05519433  0.00000000       0.002
   0.07632227  0.05587573  0.00000000       0.002
   0.07592885  0.05655713  0.00000000       0.002
   0.07553542  0.05723853  0.00000000       0.002
   0.07514200  0.05791993  0.00000000       0.002
   0.07474858  0.05860133  0.00000000       0.002
   0.07435516  0.05928273  0.00000000       0.002
   0.07396173  0.05996413  0.00000000       0.002
   0.07356831  0.06064553  0.00000000       0.002
   0.07317489  0.06132693  0.00000000       0.002
   0.07278147  0.06200833  0.00000000       0.002
   0.07238805  0.06268973  0.00000000       0.002
   0.07199462  0.06337113  0.00000000       0.002
   0.07160120  0.06405253  0.00000000       0.002
   0.07120778  0.06473393  0.00000000       0.002
   0.07081436  0.06541533  0.00000000       0.002
   0.07042094  0.06609673  0.00000000       0.002
   0.07002751  0.06677813  0.00000000       0.002
   0.06963409  0.06745953  0.00000000       0.002
   0.06924067  0.06814093  0.00000000       0.002
   0.06884725  0.06882233  0.00000000       0.002
   0.06845382  0.06950373  0.00000000       0.002
   0.06806040  0.07018513  0.00000000       0.002
   0.06766698  0.07086653  0.00000000       0.002
   0.06727356  0.07154793  0.00000000       0.002
   0.06688014  0.07222933  0.00000000       0.002
   0.06648671  0.07291073  0.00000000       0.002
   0.06609329  0.07359213  0.00000000       0.002
   0.06569987  0.07427353  0.00000000       0.002
   0.06530645  0.07495493  0.00000000       0.002
   0.06491303  0.07563633  0.00000000       0.002
   0.06451960  0.07631773  0.00000000       0.002
   0.06412618  0.07699913  0.00000000       0.002
   0.06373276  0.07768053  0.00000000       0.002
   0.06333934  0.07836193  0.00000000       0.002
   0.06294591  0.07904333  0.00000000       0.002
   0.06255249  0.07972473  0.00000000       0.002
   0.06215907  0.08040613  0.00000000       0.002
   0.06176565  0.08108753  0.00000000       0.002
   0.06137223  0.08176893  0.00000000       0.002
   0.06097880  0.08245033  0.00000000       0.002
   0.06058538  0.08313173  0.00000000       0.002
   0.06019196  0.08381313  0.00000000       0.002
   0.05979854  0.08449453  0.00000000       0.002
   0.05940512  0.08517593  0.00000000       0.002
   0.05901169  0.08585733  0.00000000       0.002
   0.05861827  0.08653873  0.00000000       0.002
   0.05822485  0.08722013  0.00000000       0.002
   0.05783143  0.08790153  0.00000000       0.002
   0.05743800  0.08858293  0.00000000       0.002
   0.05704458  0.08926433  0.00000000       0.002
   0.05665116  0.08994573  0.00000000       0.002
   0.05625774  0.09062713  0.00000000       0.002
   0.05586432  0.09130853  0.00000000       0.002
   0.05547089  0.09198993  0.00000000       0.002
   0.05507747  0.09267133  0.00000000       0.002
   0.05468405  0.09335273  0.00000000       0.002
   0.05429063  0.09403413  0.00000000       0.002
   0.05429063  0.09403413  0.00000000       0.002
   0.05350381  0.09267131  0.00000000       0.002
   0.05271699  0.09130850  0.00000000       0.002
   0.05193017  0.08994568  0.00000000       0.002
   0.05114334  0.08858287  0.00000000       0.002
   0.05035652  0.08722006  0.00000000       0.002
   0.04956970  0.08585724  0.00000000       0.002
   0.04878288  0.08449443  0.00000000       0.002
   0.04799606  0.08313162  0.00000000       0.002
   0.04720924  0.08176880  0.00000000       0.002
   0.04642242  0.08040599  0.00000000       0.002
   0.04563560  0.07904318  0.00000000       0.002
   0.04484878  0.07768036  0.00000000       0.002
   0.04406196  0.07631755  0.00000000       0.002
   0.04327514  0.07495474  0.00000000       0.002
   0.04248832  0.07359192  0.00000000       0.002
   0.04170150  0.07222911  0.00000000       0.002
   0.04091468  0.07086630  0.00000000       0.002
   0.04012786  0.06950348  0.00000000       0.002
   0.03934103  0.06814067  0.00000000       0.002
   0.03855421  0.06677786  0.00000000       0.002
   0.03776739  0.06541504  0.00000000       0.002
   0.03698057  0.06405223  0.00000000       0.002
   0.03619375  0.06268942  0.00000000       0.002
   0.03540693  0.06132660  0.00000000       0.002
   0.03462011  0.05996379  0.00000000       0.002
   0.03383329  0.05860098  0.00000000       0.002
   0.03304647  0.05723816  0.00000000       0.002
   0.03225965  0.05587535  0.00000000       0.002
   0.03147283  0.05451254  0.00000000       0.002
   0.03068601  0.05314972  0.00000000       0.002
   0.02989919  0.05178691  0.00000000       0.002
   0.02911237  0.05042410  0.00000000       0.002
   0.02832554  0.04906128  0.00000000       0.002
   0.02753872  0.04769847  0.00000000       0.002
   0.02675190  0.04633566  0.00000000       0.002
   0.02596508  0.04497284  0.00000000       0.002
   0.02517826  0.04361003  0.00000000       0.002
   0.02439144  0.04224722  0.00000000       0.002
   0.02360462  0.04088440  0.00000000       0.002
   0.02281780  0.03952159  0.00000000       0.002
   0.02203098  0.03815878  0.00000000       0.002
   0.02124416  0.03679596  0.00000000       0.002
   0.02045734  0.03543315  0.00000000       0.002
   0.01967052  0.03407034  0.00000000       0.002
   0.01888370  0.03270752  0.00000000       0.002
   0.01809688  0.03134471  0.00000000       0.002
   0.01731006  0.02998189  0.00000000       0.002
   0.01652323  0.02861908  0.00000000       0.002
   0.01573641  0.02725627  0.00000000       0.002
   0.01494959  0.02589345  0.00000000       0.002
   0.01416277  0.02453064  0.00000000       0.002
   0.01337595  0.02316783  0.00000000       0.002
   0.01258913  0.02180501  0.00000000       0.002
   0.01180231  0.02044220  0.00000000       0.002
   0.01101549  0.01907939  0.00000000       0.002
   0.01022867  0.01771657  0.00000000       0.002
   0.00944185  0.01635376  0.00000000       0.002
   0.00865503  0.01499095  0.00000000       0.002
   0.00786821  0.01362813  0.00000000       0.002
   0.00708139  0.01226532  0.00000000       0.002
   0.00629457  0.01090251  0.00000000       0.002
   0.00550774  0.00953969  0.00000000       0.002
   0.00472092  0.00817688  0.00000000       0.002
   0.00393410  0.00681407  0.00000000       0.002
   0.00314728  0.00545125  0.00000000       0.002
   0.00236046  0.00408844  0.00000000       0.002
   0.00157364  0.00272563  0.00000000       0.002
   0.00078682  0.00136281  0.00000000       0.002
   0.00000000  0.00000000  0.00000000       0.002
   0.00000000  0.00000000  0.00000000       0.002
   0.00000000  0.00000000  0.00072545       0.002
   0.00000000  0.00000000  0.00145091       0.002
   0.00000000  0.00000000  0.00217636       0.002
   0.00000000  0.00000000  0.00290182       0.002
   0.00000000  0.00000000  0.00362727       0.002
   0.00000000  0.00000000  0.00435272       0.002
   0.00000000  0.00000000  0.00507818       0.002
   0.00000000  0.00000000  0.00580363       0.002
   0.00000000  0.00000000  0.00652909       0.002
   0.00000000  0.00000000  0.00725454       0.002
   0.00000000  0.00000000  0.00798000       0.002
   0.00000000  0.00000000  0.00870545       0.002
   0.00000000  0.00000000  0.00943090       0.002
   0.00000000  0.00000000  0.01015636       0.002
   0.00000000  0.00000000  0.01088181       0.002
   0.00000000  0.00000000  0.01160727       0.002
   0.00000000  0.00000000  0.01233272       0.002
   0.00000000  0.00000000  0.01305817       0.002
   0.00000000  0.00000000  0.01378363       0.002
   0.00000000  0.00000000  0.01450908       0.002
   0.00000000  0.00000000  0.01523454       0.002
   0.00000000  0.00000000  0.01595999       0.002
   0.00000000  0.00000000  0.01668544       0.002
   0.00000000  0.00000000  0.01741090       0.002
   0.00000000  0.00000000  0.01813635       0.002
   0.00000000  0.00000000  0.01886181       0.002
   0.00000000  0.00000000  0.01958726       0.002
   0.00000000  0.00000000  0.02031272       0.002
   0.00000000  0.00000000  0.02103817       0.002
   0.00000000  0.00000000  0.02176362       0.002
   0.00000000  0.00000000  0.02248908       0.002
   0.00000000  0.00000000  0.02321453       0.002
   0.00000000  0.00000000  0.02393999       0.002
   0.00000000  0.00000000  0.02466544       0.002
   0.00000000  0.00000000  0.02539089       0.002
   0.00000000  0.00000000  0.02611635       0.002
   0.00000000  0.00000000  0.02684180       0.002
   0.00000000  0.00000000  0.02756726       0.002
   0.00000000  0.00000000  0.02829271       0.002
   0.00000000  0.00000000  0.02901817       0.002
   0.00000000  0.00000000  0.02974362       0.002
   0.00000000  0.00000000  0.03046907       0.002
   0.00000000  0.00000000  0.03119453       0.002
   0.00000000  0.00000000  0.03191998       0.002
   0.00000000  0.00000000  0.03264544       0.002
   0.00000000  0.00000000  0.03337089       0.002
   0.00000000  0.00000000  0.03409634       0.002
   0.00000000  0.00000000  0.03482180       0.002
   0.00000000  0.00000000  0.03554725       0.002
   0.00000000  0.00000000  0.03627271       0.002
   0.00000000  0.00000000  0.03699816       0.002
   0.00000000  0.00000000  0.03772361       0.002
   0.00000000  0.00000000  0.03844907       0.002
   0.00000000  0.00000000  0.03917452       0.002
   0.00000000  0.00000000  0.03989998       0.002
   0.00000000  0.00000000  0.04062543       0.002
   0.00000000  0.00000000  0.04135089       0.002
   0.00000000  0.00000000  0.04207634       0.002
   0.00000000  0.00000000  0.04280179       0.002
   0.00000000  0.00000000  0.04352725       0.002
   0.00000000  0.00000000  0.04425270       0.002
   0.00000000  0.00000000  0.04497816       0.002
   0.00000000  0.00000000  0.04570361       0.002
   0.00000000  0.00000000  0.04642906       0.002
   0.00000000  0.00000000  0.04715452       0.002
   0.00000000  0.00000000  0.04787997       0.002
   0.00000000  0.00000000  0.04860543       0.002
   0.00000000  0.00000000  0.04933088       0.002
   0.00000000  0.00000000  0.05005633       0.002
   0.00000000  0.00000000  0.05005633       0.002
   0.00118024  0.00068141  0.05005633       0.002
   0.00236049  0.00136283  0.05005633       0.002
   0.00354073  0.00204424  0.05005633       0.002
   0.00472097  0.00272565  0.05005633       0.002
   0.00590121  0.00340707  0.05005633       0.002
   0.00708146  0.00408848  0.05005633       0.002
   0.00826170  0.00476989  0.05005633       0.002
   0.00944194  0.00545131  0.05005633       0.002
   0.01062219  0.00613272  0.05005633       0.002
   0.01180243  0.00681414  0.05005633       0.002
   0.01298267  0.00749555  0.05005633       0.002
   0.01416291  0.00817696  0.05005633       0.002
   0.01534316  0.00885838  0.05005633       0.002
   0.01652340  0.00953979  0.05005633       0.002
   0.01770364  0.01022120  0.05005633       0.002
   0.01888389  0.01090262  0.05005633       0.002
   0.02006413  0.01158403  0.05005633       0.002
   0.02124437  0.01226544  0.05005633       0.002
   0.02242461  0.01294686  0.05005633       0.002
   0.02360486  0.01362827  0.05005633       0.002
   0.02478510  0.01430968  0.05005633       0.002
   0.02596534  0.01499110  0.05005633       0.002
   0.02714559  0.01567251  0.05005633       0.002
   0.02832583  0.01635392  0.05005633       0.002
   0.02950607  0.01703534  0.05005633       0.002
   0.03068631  0.01771675  0.05005633       0.002
   0.03186656  0.01839816  0.05005633       0.002
   0.03304680  0.01907958  0.05005633       0.002
   0.03422704  0.01976099  0.05005633       0.002
   0.03540729  0.02044241  0.05005633       0.002
   0.03658753  0.02112382  0.05005633       0.002
   0.03776777  0.02180523  0.05005633       0.002
   0.03894801  0.02248665  0.05005633       0.002
   0.04012826  0.02316806  0.05005633       0.002
   0.04130850  0.02384947  0.05005633       0.002
   0.04248874  0.02453089  0.05005633       0.002
   0.04366898  0.02521230  0.05005633       0.002
   0.04484923  0.02589371  0.05005633       0.002
   0.04602947  0.02657513  0.05005633       0.002
   0.04720971  0.02725654  0.05005633       0.002
   0.04838996  0.02793795  0.05005633       0.002
   0.04957020  0.02861937  0.05005633       0.002
   0.05075044  0.02930078  0.05005633       0.002
   0.05193068  0.02998219  0.05005633       0.002
   0.05311093  0.03066361  0.05005633       0.002
   0.05429117  0.03134502  0.05005633       0.002
   0.05547141  0.03202644  0.05005633       0.002
   0.05665166  0.03270785  0.05005633       0.002
   0.05783190  0.03338926  0.05005633       0.002
   0.05901214  0.03407068  0.05005633       0.002
   0.06019238  0.03475209  0.05005633       0.002
   0.06137263  0.03543350  0.05005633       0.002
   0.06255287  0.03611492  0.05005633       0.002
   0.06373311  0.03679633  0.05005633       0.002
   0.06491336  0.03747774  0.05005633       0.002
   0.06609360  0.03815916  0.05005633       0.002
   0.06727384  0.03884057  0.05005633       0.002
   0.06845408  0.03952198  0.05005633       0.002
   0.06963433  0.04020340  0.05005633       0.002
   0.07081457  0.04088481  0.05005633       0.002
   0.07199481  0.04156622  0.05005633       0.002
   0.07317506  0.04224764  0.05005633       0.002
   0.07435530  0.04292905  0.05005633       0.002
   0.07553554  0.04361047  0.05005633       0.002
   0.07671578  0.04429188  0.05005633       0.002
   0.07789603  0.04497329  0.05005633       0.002
   0.07907627  0.04565471  0.05005633       0.002
   0.08025651  0.04633612  0.05005633       0.002
   0.08143676  0.04701753  0.05005633       0.002
   0.08143676  0.04701753  0.05005633       0.002
   0.08104333  0.04769893  0.05005633       0.002
   0.08064991  0.04838033  0.05005633       0.002
   0.08025649  0.04906173  0.05005633       0.002
   0.07986307  0.04974313  0.05005633       0.002
   0.07946964  0.05042453  0.05005633       0.002
   0.07907622  0.05110593  0.05005633       0.002
   0.07868280  0.05178733  0.05005633       0.002
   0.07828938  0.05246873  0.05005633       0.002
   0.07789596  0.05315013  0.05005633       0.002
   0.07750253  0.05383153  0.05005633       0.002
   0.07710911  0.05451293  0.05005633       0.002
   0.07671569  0.05519433  0.05005633       0.002
   0.07632227  0.05587573  0.05005633       0.002
   0.07592885  0.05655713  0.05005633       0.002
   0.07553542  0.05723853  0.05005633       0.002
   0.07514200  0.05791993  0.05005633       0.002
   0.07474858  0.05860133  0.05005633       0.002
   0.07435516  0.05928273  0.05005633       0.002
   0.07396173  0.05996413  0.05005633       0.002
   0.07356831  0.06064553  0.05005633       0.002
   0.07317489  0.06132693  0.05005633       0.002
   0.07278147  0.06200833  0.05005633       0.002
   0.07238805  0.06268973  0.05005633       0.002
   0.07199462  0.06337113  0.05005633       0.002
   0.07160120  0.06405253  0.05005633       0.002
   0.07120778  0.06473393  0.05005633       0.002
   0.07081436  0.06541533  0.05005633       0.002
   0.07042094  0.06609673  0.05005633       0.002
   0.07002751  0.06677813  0.05005633       0.002
   0.06963409  0.06745953  0.05005633       0.002
   0.06924067  0.06814093  0.05005633       0.002
   0.06884725  0.06882233  0.05005633       0.002
   0.06845382  0.06950373  0.05005633       0.002
   0.06806040  0.07018513  0.05005633       0.002
   0.06766698  0.07086653  0.05005633       0.002
   0.06727356  0.07154793  0.05005633       0.002
   0.06688014  0.07222933  0.05005633       0.002
   0.06648671  0.07291073  0.05005633       0.002
   0.06609329  0.07359213  0.05005633       0.002
   0.06569987  0.07427353  0.05005633       0.002
   0.06530645  0.07495493  0.05005633       0.002
   0.06491303  0.07563633  0.05005633       0.002
   0.06451960  0.07631773  0.05005633       0.002
   0.06412618  0.07699913  0.05005633       0.002
   0.06373276  0.07768053  0.05005633       0.002
   0.06333934  0.07836193  0.05005633       0.002
   0.06294591  0.07904333  0.05005633       0.002
   0.06255249  0.07972473  0.05005633       0.002
   0.06215907  0.08040613  0.05005633       0.002
   0.06176565  0.08108753  0.05005633       0.002
   0.06137223  0.08176893  0.05005633       0.002
   0.06097880  0.08245033  0.05005633       0.002
   0.06058538  0.08313173  0.05005633       0.002
   0.06019196  0.08381313  0.05005633       0.002
   0.05979854  0.08449453  0.05005633       0.002
   0.05940512  0.08517593  0.05005633       0.002
   0.05901169  0.08585733  0.05005633       0.002
   0.05861827  0.08653873  0.05005633       0.002
   0.05822485  0.08722013  0.05005633       0.002
   0.05783143  0.08790153  0.05005633       0.002
   0.05743800  0.08858293  0.05005633       0.002
   0.05704458  0.08926433  0.05005633       0.002
   0.05665116  0.08994573  0.05005633       0.002
   0.05625774  0.09062713  0.05005633       0.002
   0.05586432  0.09130853  0.05005633       0.002
   0.05547089  0.09198993  0.05005633       0.002
   0.05507747  0.09267133  0.05005633       0.002
   0.05468405  0.09335273  0.05005633       0.002
   0.05429063  0.09403413  0.05005633       0.002
   0.05429063  0.09403413  0.05005633       0.002
   0.05350381  0.09267131  0.05005633       0.002
   0.05271699  0.09130850  0.05005633       0.002
   0.05193017  0.08994568  0.05005633       0.002
   0.05114334  0.08858287  0.05005633       0.002
   0.05035652  0.08722006  0.05005633       0.002
   0.04956970  0.08585724  0.05005633       0.002
   0.04878288  0.08449443  0.05005633       0.002
   0.04799606  0.08313162  0.05005633       0.002
   0.04720924  0.08176880  0.05005633       0.002
   0.04642242  0.08040599  0.05005633       0.002
   0.04563560  0.07904318  0.05005633       0.002
   0.04484878  0.07768036  0.05005633       0.002
   0.04406196  0.07631755  0.05005633       0.002
   0.04327514  0.07495474  0.05005633       0.002
   0.04248832  0.07359192  0.05005633       0.002
   0.04170150  0.07222911  0.05005633       0.002
   0.04091468  0.07086630  0.05005633       0.002
   0.04012786  0.06950348  0.05005633       0.002
   0.03934103  0.06814067  0.05005633       0.002
   0.03855421  0.06677786  0.05005633       0.002
   0.03776739  0.06541504  0.05005633       0.002
   0.03698057  0.06405223  0.05005633       0.002
   0.03619375  0.06268942  0.05005633       0.002
   0.03540693  0.06132660  0.05005633       0.002
   0.03462011  0.05996379  0.05005633       0.002
   0.03383329  0.05860098  0.05005633       0.002
   0.03304647  0.05723816  0.05005633       0.002
   0.03225965  0.05587535  0.05005633       0.002
   0.03147283  0.05451254  0.05005633       0.002
   0.03068601  0.05314972  0.05005633       0.002
   0.02989919  0.05178691  0.05005633       0.002
   0.02911237  0.05042410  0.05005633       0.002
   0.02832554  0.04906128  0.05005633       0.002
   0.02753872  0.04769847  0.05005633       0.002
   0.02675190  0.04633566  0.05005633       0.002
   0.02596508  0.04497284  0.05005633       0.002
   0.02517826  0.04361003  0.05005633       0.002
   0.02439144  0.04224722  0.05005633       0.002
   0.02360462  0.04088440  0.05005633       0.002
   0.02281780  0.03952159  0.05005633       0.002
   0.02203098  0.03815878  0.05005633       0.002
   0.02124416  0.03679596  0.05005633       0.002
   0.02045734  0.03543315  0.05005633       0.002
   0.01967052  0.03407034  0.05005633       0.002
   0.01888370  0.03270752  0.05005633       0.002
   0.01809688  0.03134471  0.05005633       0.002
   0.01731006  0.02998189  0.05005633       0.002
   0.01652323  0.02861908  0.05005633       0.002
   0.01573641  0.02725627  0.05005633       0.002
   0.01494959  0.02589345  0.05005633       0.002
   0.01416277  0.02453064  0.05005633       0.002
   0.01337595  0.02316783  0.05005633       0.002
   0.01258913  0.02180501  0.05005633       0.002
   0.01180231  0.02044220  0.05005633       0.002
   0.01101549  0.01907939  0.05005633       0.002
   0.01022867  0.01771657  0.05005633       0.002
   0.00944185  0.01635376  0.05005633       0.002
   0.00865503  0.01499095  0.05005633       0.002
   0.00786821  0.01362813  0.05005633       0.002
   0.00708139  0.01226532  0.05005633       0.002
   0.00629457  0.01090251  0.05005633       0.002
   0.00550774  0.00953969  0.05005633       0.002
   0.00472092  0.00817688  0.05005633       0.002
   0.00393410  0.00681407  0.05005633       0.002
   0.00314728  0.00545125  0.05005633       0.002
   0.00236046  0.00408844  0.05005633       0.002
   0.00157364  0.00272563  0.05005633       0.002
   0.00078682  0.00136281  0.05005633       0.002
   0.00000000  0.00000000  0.05005633       0.002
 
 k-points in reciprocal lattice and weights: k-points for bandstructure G-M-K-G-A-L-H
   0.00000000  0.00000000  0.00000000       0.002
   0.00724638  0.00000000  0.00000000       0.002
   0.01449275  0.00000000  0.00000000       0.002
   0.02173913  0.00000000  0.00000000       0.002
   0.02898551  0.00000000  0.00000000       0.002
   0.03623188  0.00000000  0.00000000       0.002
   0.04347826  0.00000000  0.00000000       0.002
   0.05072464  0.00000000  0.00000000       0.002
   0.05797101  0.00000000  0.00000000       0.002
   0.06521739  0.00000000  0.00000000       0.002
   0.07246377  0.00000000  0.00000000       0.002
   0.07971014  0.00000000  0.00000000       0.002
   0.08695652  0.00000000  0.00000000       0.002
   0.09420290  0.00000000  0.00000000       0.002
   0.10144928  0.00000000  0.00000000       0.002
   0.10869565  0.00000000  0.00000000       0.002
   0.11594203  0.00000000  0.00000000       0.002
   0.12318841  0.00000000  0.00000000       0.002
   0.13043478  0.00000000  0.00000000       0.002
   0.13768116  0.00000000  0.00000000       0.002
   0.14492754  0.00000000  0.00000000       0.002
   0.15217391  0.00000000  0.00000000       0.002
   0.15942029  0.00000000  0.00000000       0.002
   0.16666667  0.00000000  0.00000000       0.002
   0.17391304  0.00000000  0.00000000       0.002
   0.18115942  0.00000000  0.00000000       0.002
   0.18840580  0.00000000  0.00000000       0.002
   0.19565217  0.00000000  0.00000000       0.002
   0.20289855  0.00000000  0.00000000       0.002
   0.21014493  0.00000000  0.00000000       0.002
   0.21739130  0.00000000  0.00000000       0.002
   0.22463768  0.00000000  0.00000000       0.002
   0.23188406  0.00000000  0.00000000       0.002
   0.23913043  0.00000000  0.00000000       0.002
   0.24637681  0.00000000  0.00000000       0.002
   0.25362319  0.00000000  0.00000000       0.002
   0.26086957  0.00000000  0.00000000       0.002
   0.26811594  0.00000000  0.00000000       0.002
   0.27536232  0.00000000  0.00000000       0.002
   0.28260870  0.00000000  0.00000000       0.002
   0.28985507  0.00000000  0.00000000       0.002
   0.29710145  0.00000000  0.00000000       0.002
   0.30434783  0.00000000  0.00000000       0.002
   0.31159420  0.00000000  0.00000000       0.002
   0.31884058  0.00000000  0.00000000       0.002
   0.32608696  0.00000000  0.00000000       0.002
   0.33333333  0.00000000  0.00000000       0.002
   0.34057971  0.00000000  0.00000000       0.002
   0.34782609  0.00000000  0.00000000       0.002
   0.35507246  0.00000000  0.00000000       0.002
   0.36231884  0.00000000  0.00000000       0.002
   0.36956522  0.00000000  0.00000000       0.002
   0.37681159  0.00000000  0.00000000       0.002
   0.38405797  0.00000000  0.00000000       0.002
   0.39130435  0.00000000  0.00000000       0.002
   0.39855072  0.00000000  0.00000000       0.002
   0.40579710  0.00000000  0.00000000       0.002
   0.41304348  0.00000000  0.00000000       0.002
   0.42028986  0.00000000  0.00000000       0.002
   0.42753623  0.00000000  0.00000000       0.002
   0.43478261  0.00000000  0.00000000       0.002
   0.44202899  0.00000000  0.00000000       0.002
   0.44927536  0.00000000  0.00000000       0.002
   0.45652174  0.00000000  0.00000000       0.002
   0.46376812  0.00000000  0.00000000       0.002
   0.47101449  0.00000000  0.00000000       0.002
   0.47826087  0.00000000  0.00000000       0.002
   0.48550725  0.00000000  0.00000000       0.002
   0.49275362  0.00000000  0.00000000       0.002
   0.50000000  0.00000000  0.00000000       0.002
   0.50000000  0.00000000  0.00000000       0.002
   0.49758449  0.00483087  0.00000000       0.002
   0.49516899  0.00966174  0.00000000       0.002
   0.49275348  0.01449261  0.00000000       0.002
   0.49033797  0.01932348  0.00000000       0.002
   0.48792246  0.02415435  0.00000000       0.002
   0.48550696  0.02898522  0.00000000       0.002
   0.48309145  0.03381609  0.00000000       0.002
   0.48067594  0.03864696  0.00000000       0.002
   0.47826043  0.04347783  0.00000000       0.002
   0.47584493  0.04830870  0.00000000       0.002
   0.47342942  0.05313957  0.00000000       0.002
   0.47101391  0.05797043  0.00000000       0.002
   0.46859841  0.06280130  0.00000000       0.002
   0.46618290  0.06763217  0.00000000       0.002
   0.46376739  0.07246304  0.00000000       0.002
   0.46135188  0.07729391  0.00000000       0.002
   0.45893638  0.08212478  0.00000000       0.002
   0.45652087  0.08695565  0.00000000       0.002
   0.45410536  0.09178652  0.00000000       0.002
   0.45168986  0.09661739  0.00000000       0.002
   0.44927435  0.10144826  0.00000000       0.002
   0.44685884  0.10627913  0.00000000       0.002
   0.44444333  0.11111000  0.00000000       0.002
   0.44202783  0.11594087  0.00000000       0.002
   0.43961232  0.12077174  0.00000000       0.002
   0.43719681  0.12560261  0.00000000       0.002
   0.43478130  0.13043348  0.00000000       0.002
   0.43236580  0.13526435  0.00000000       0.002
   0.42995029  0.14009522  0.00000000       0.002
   0.42753478  0.14492609  0.00000000       0.002
   0.42511928  0.14975696  0.00000000       0.002
   0.42270377  0.15458783  0.00000000       0.002
   0.42028826  0.15941870  0.00000000       0.002
   0.41787275  0.16424957  0.00000000       0.002
   0.41545725  0.16908043  0.00000000       0.002
   0.41304174  0.17391130  0.00000000       0.002
   0.41062623  0.17874217  0.00000000       0.002
   0.40821072  0.18357304  0.00000000       0.002
   0.40579522  0.18840391  0.00000000       0.002
   0.40337971  0.19323478  0.00000000       0.002
   0.40096420  0.19806565  0.00000000       0.002
   0.39854870  0.20289652  0.00000000       0.002
   0.39613319  0.20772739  0.00000000       0.002
   0.39371768  0.21255826  0.00000000       0.002
   0.39130217  0.21738913  0.00000000       0.002
   0.38888667  0.22222000  0.00000000       0.002
   0.38647116  0.22705087  0.00000000       0.002
   0.38405565  0.23188174  0.00000000       0.002
   0.38164014  0.23671261  0.00000000       0.002
   0.37922464  0.24154348  0.00000000       0.002
   0.37680913  0.24637435  0.00000000       0.002
   0.37439362  0.25120522  0.00000000       0.002
   0.37197812  0.25603609  0.00000000       0.002
   0.36956261  0.26086696  0.00000000       0.002
   0.36714710  0.26569783  0.00000000       0.002
   0.36473159  0.27052870  0.00000000       0.002
   0.36231609  0.27535957  0.00000000       0.002
   0.35990058  0.28019043  0.00000000       0.002
   0.35748507  0.28502130  0.00000000       0.002
   0.35506957  0.28985217  0.00000000       0.002
   0.35265406  0.29468304  0.00000000       0.002
   0.35023855  0.29951391  0.00000000       0.002
   0.34782304  0.30434478  0.00000000       0.002
   0.34540754  0.30917565  0.00000000       0.002
   0.34299203  0.31400652  0.00000000       0.002
   0.34057652  0.31883739  0.00000000       0.002
   0.33816101  0.32366826  0.00000000       0.002
   0.33574551  0.32849913  0.00000000       0.002
   0.33333000  0.33333000  0.00000000       0.002
   0.33333000  0.33333000  0.00000000       0.002
   0.32849913  0.32849913  0.00000000       0.002
   0.32366826  0.32366826  0.00000000       0.002
   0.31883739  0.31883739  0.00000000       0.002
   0.31400652  0.31400652  0.00000000       0.002
   0.30917565  0.30917565  0.00000000       0.002
   0.30434478  0.30434478  0.00000000       0.002
   0.29951391  0.29951391  0.00000000       0.002
   0.29468304  0.29468304  0.00000000       0.002
   0.28985217  0.28985217  0.00000000       0.002
   0.28502130  0.28502130  0.00000000       0.002
   0.28019043  0.28019043  0.00000000       0.002
   0.27535957  0.27535957  0.00000000       0.002
   0.27052870  0.27052870  0.00000000       0.002
   0.26569783  0.26569783  0.00000000       0.002
   0.26086696  0.26086696  0.00000000       0.002
   0.25603609  0.25603609  0.00000000       0.002
   0.25120522  0.25120522  0.00000000       0.002
   0.24637435  0.24637435  0.00000000       0.002
   0.24154348  0.24154348  0.00000000       0.002
   0.23671261  0.23671261  0.00000000       0.002
   0.23188174  0.23188174  0.00000000       0.002
   0.22705087  0.22705087  0.00000000       0.002
   0.22222000  0.22222000  0.00000000       0.002
   0.21738913  0.21738913  0.00000000       0.002
   0.21255826  0.21255826  0.00000000       0.002
   0.20772739  0.20772739  0.00000000       0.002
   0.20289652  0.20289652  0.00000000       0.002
   0.19806565  0.19806565  0.00000000       0.002
   0.19323478  0.19323478  0.00000000       0.002
   0.18840391  0.18840391  0.00000000       0.002
   0.18357304  0.18357304  0.00000000       0.002
   0.17874217  0.17874217  0.00000000       0.002
   0.17391130  0.17391130  0.00000000       0.002
   0.16908043  0.16908043  0.00000000       0.002
   0.16424957  0.16424957  0.00000000       0.002
   0.15941870  0.15941870  0.00000000       0.002
   0.15458783  0.15458783  0.00000000       0.002
   0.14975696  0.14975696  0.00000000       0.002
   0.14492609  0.14492609  0.00000000       0.002
   0.14009522  0.14009522  0.00000000       0.002
   0.13526435  0.13526435  0.00000000       0.002
   0.13043348  0.13043348  0.00000000       0.002
   0.12560261  0.12560261  0.00000000       0.002
   0.12077174  0.12077174  0.00000000       0.002
   0.11594087  0.11594087  0.00000000       0.002
   0.11111000  0.11111000  0.00000000       0.002
   0.10627913  0.10627913  0.00000000       0.002
   0.10144826  0.10144826  0.00000000       0.002
   0.09661739  0.09661739  0.00000000       0.002
   0.09178652  0.09178652  0.00000000       0.002
   0.08695565  0.08695565  0.00000000       0.002
   0.08212478  0.08212478  0.00000000       0.002
   0.07729391  0.07729391  0.00000000       0.002
   0.07246304  0.07246304  0.00000000       0.002
   0.06763217  0.06763217  0.00000000       0.002
   0.06280130  0.06280130  0.00000000       0.002
   0.05797043  0.05797043  0.00000000       0.002
   0.05313957  0.05313957  0.00000000       0.002
   0.04830870  0.04830870  0.00000000       0.002
   0.04347783  0.04347783  0.00000000       0.002
   0.03864696  0.03864696  0.00000000       0.002
   0.03381609  0.03381609  0.00000000       0.002
   0.02898522  0.02898522  0.00000000       0.002
   0.02415435  0.02415435  0.00000000       0.002
   0.01932348  0.01932348  0.00000000       0.002
   0.01449261  0.01449261  0.00000000       0.002
   0.00966174  0.00966174  0.00000000       0.002
   0.00483087  0.00483087  0.00000000       0.002
   0.00000000  0.00000000  0.00000000       0.002
   0.00000000  0.00000000  0.00000000       0.002
   0.00000000  0.00000000  0.00724638       0.002
   0.00000000  0.00000000  0.01449275       0.002
   0.00000000  0.00000000  0.02173913       0.002
   0.00000000  0.00000000  0.02898551       0.002
   0.00000000  0.00000000  0.03623188       0.002
   0.00000000  0.00000000  0.04347826       0.002
   0.00000000  0.00000000  0.05072464       0.002
   0.00000000  0.00000000  0.05797101       0.002
   0.00000000  0.00000000  0.06521739       0.002
   0.00000000  0.00000000  0.07246377       0.002
   0.00000000  0.00000000  0.07971014       0.002
   0.00000000  0.00000000  0.08695652       0.002
   0.00000000  0.00000000  0.09420290       0.002
   0.00000000  0.00000000  0.10144928       0.002
   0.00000000  0.00000000  0.10869565       0.002
   0.00000000  0.00000000  0.11594203       0.002
   0.00000000  0.00000000  0.12318841       0.002
   0.00000000  0.00000000  0.13043478       0.002
   0.00000000  0.00000000  0.13768116       0.002
   0.00000000  0.00000000  0.14492754       0.002
   0.00000000  0.00000000  0.15217391       0.002
   0.00000000  0.00000000  0.15942029       0.002
   0.00000000  0.00000000  0.16666667       0.002
   0.00000000  0.00000000  0.17391304       0.002
   0.00000000  0.00000000  0.18115942       0.002
   0.00000000  0.00000000  0.18840580       0.002
   0.00000000  0.00000000  0.19565217       0.002
   0.00000000  0.00000000  0.20289855       0.002
   0.00000000  0.00000000  0.21014493       0.002
   0.00000000  0.00000000  0.21739130       0.002
   0.00000000  0.00000000  0.22463768       0.002
   0.00000000  0.00000000  0.23188406       0.002
   0.00000000  0.00000000  0.23913043       0.002
   0.00000000  0.00000000  0.24637681       0.002
   0.00000000  0.00000000  0.25362319       0.002
   0.00000000  0.00000000  0.26086957       0.002
   0.00000000  0.00000000  0.26811594       0.002
   0.00000000  0.00000000  0.27536232       0.002
   0.00000000  0.00000000  0.28260870       0.002
   0.00000000  0.00000000  0.28985507       0.002
   0.00000000  0.00000000  0.29710145       0.002
   0.00000000  0.00000000  0.30434783       0.002
   0.00000000  0.00000000  0.31159420       0.002
   0.00000000  0.00000000  0.31884058       0.002
   0.00000000  0.00000000  0.32608696       0.002
   0.00000000  0.00000000  0.33333333       0.002
   0.00000000  0.00000000  0.34057971       0.002
   0.00000000  0.00000000  0.34782609       0.002
   0.00000000  0.00000000  0.35507246       0.002
   0.00000000  0.00000000  0.36231884       0.002
   0.00000000  0.00000000  0.36956522       0.002
   0.00000000  0.00000000  0.37681159       0.002
   0.00000000  0.00000000  0.38405797       0.002
   0.00000000  0.00000000  0.39130435       0.002
   0.00000000  0.00000000  0.39855072       0.002
   0.00000000  0.00000000  0.40579710       0.002
   0.00000000  0.00000000  0.41304348       0.002
   0.00000000  0.00000000  0.42028986       0.002
   0.00000000  0.00000000  0.42753623       0.002
   0.00000000  0.00000000  0.43478261       0.002
   0.00000000  0.00000000  0.44202899       0.002
   0.00000000  0.00000000  0.44927536       0.002
   0.00000000  0.00000000  0.45652174       0.002
   0.00000000  0.00000000  0.46376812       0.002
   0.00000000  0.00000000  0.47101449       0.002
   0.00000000  0.00000000  0.47826087       0.002
   0.00000000  0.00000000  0.48550725       0.002
   0.00000000  0.00000000  0.49275362       0.002
   0.00000000  0.00000000  0.50000000       0.002
   0.00000000  0.00000000  0.50000000       0.002
   0.00724638  0.00000000  0.50000000       0.002
   0.01449275  0.00000000  0.50000000       0.002
   0.02173913  0.00000000  0.50000000       0.002
   0.02898551  0.00000000  0.50000000       0.002
   0.03623188  0.00000000  0.50000000       0.002
   0.04347826  0.00000000  0.50000000       0.002
   0.05072464  0.00000000  0.50000000       0.002
   0.05797101  0.00000000  0.50000000       0.002
   0.06521739  0.00000000  0.50000000       0.002
   0.07246377  0.00000000  0.50000000       0.002
   0.07971014  0.00000000  0.50000000       0.002
   0.08695652  0.00000000  0.50000000       0.002
   0.09420290  0.00000000  0.50000000       0.002
   0.10144928  0.00000000  0.50000000       0.002
   0.10869565  0.00000000  0.50000000       0.002
   0.11594203  0.00000000  0.50000000       0.002
   0.12318841  0.00000000  0.50000000       0.002
   0.13043478  0.00000000  0.50000000       0.002
   0.13768116  0.00000000  0.50000000       0.002
   0.14492754  0.00000000  0.50000000       0.002
   0.15217391  0.00000000  0.50000000       0.002
   0.15942029  0.00000000  0.50000000       0.002
   0.16666667  0.00000000  0.50000000       0.002
   0.17391304  0.00000000  0.50000000       0.002
   0.18115942  0.00000000  0.50000000       0.002
   0.18840580  0.00000000  0.50000000       0.002
   0.19565217  0.00000000  0.50000000       0.002
   0.20289855  0.00000000  0.50000000       0.002
   0.21014493  0.00000000  0.50000000       0.002
   0.21739130  0.00000000  0.50000000       0.002
   0.22463768  0.00000000  0.50000000       0.002
   0.23188406  0.00000000  0.50000000       0.002
   0.23913043  0.00000000  0.50000000       0.002
   0.24637681  0.00000000  0.50000000       0.002
   0.25362319  0.00000000  0.50000000       0.002
   0.26086957  0.00000000  0.50000000       0.002
   0.26811594  0.00000000  0.50000000       0.002
   0.27536232  0.00000000  0.50000000       0.002
   0.28260870  0.00000000  0.50000000       0.002
   0.28985507  0.00000000  0.50000000       0.002
   0.29710145  0.00000000  0.50000000       0.002
   0.30434783  0.00000000  0.50000000       0.002
   0.31159420  0.00000000  0.50000000       0.002
   0.31884058  0.00000000  0.50000000       0.002
   0.32608696  0.00000000  0.50000000       0.002
   0.33333333  0.00000000  0.50000000       0.002
   0.34057971  0.00000000  0.50000000       0.002
   0.34782609  0.00000000  0.50000000       0.002
   0.35507246  0.00000000  0.50000000       0.002
   0.36231884  0.00000000  0.50000000       0.002
   0.36956522  0.00000000  0.50000000       0.002
   0.37681159  0.00000000  0.50000000       0.002
   0.38405797  0.00000000  0.50000000       0.002
   0.39130435  0.00000000  0.50000000       0.002
   0.39855072  0.00000000  0.50000000       0.002
   0.40579710  0.00000000  0.50000000       0.002
   0.41304348  0.00000000  0.50000000       0.002
   0.42028986  0.00000000  0.50000000       0.002
   0.42753623  0.00000000  0.50000000       0.002
   0.43478261  0.00000000  0.50000000       0.002
   0.44202899  0.00000000  0.50000000       0.002
   0.44927536  0.00000000  0.50000000       0.002
   0.45652174  0.00000000  0.50000000       0.002
   0.46376812  0.00000000  0.50000000       0.002
   0.47101449  0.00000000  0.50000000       0.002
   0.47826087  0.00000000  0.50000000       0.002
   0.48550725  0.00000000  0.50000000       0.002
   0.49275362  0.00000000  0.50000000       0.002
   0.50000000  0.00000000  0.50000000       0.002
   0.50000000  0.00000000  0.50000000       0.002
   0.49758449  0.00483087  0.50000000       0.002
   0.49516899  0.00966174  0.50000000       0.002
   0.49275348  0.01449261  0.50000000       0.002
   0.49033797  0.01932348  0.50000000       0.002
   0.48792246  0.02415435  0.50000000       0.002
   0.48550696  0.02898522  0.50000000       0.002
   0.48309145  0.03381609  0.50000000       0.002
   0.48067594  0.03864696  0.50000000       0.002
   0.47826043  0.04347783  0.50000000       0.002
   0.47584493  0.04830870  0.50000000       0.002
   0.47342942  0.05313957  0.50000000       0.002
   0.47101391  0.05797043  0.50000000       0.002
   0.46859841  0.06280130  0.50000000       0.002
   0.46618290  0.06763217  0.50000000       0.002
   0.46376739  0.07246304  0.50000000       0.002
   0.46135188  0.07729391  0.50000000       0.002
   0.45893638  0.08212478  0.50000000       0.002
   0.45652087  0.08695565  0.50000000       0.002
   0.45410536  0.09178652  0.50000000       0.002
   0.45168986  0.09661739  0.50000000       0.002
   0.44927435  0.10144826  0.50000000       0.002
   0.44685884  0.10627913  0.50000000       0.002
   0.44444333  0.11111000  0.50000000       0.002
   0.44202783  0.11594087  0.50000000       0.002
   0.43961232  0.12077174  0.50000000       0.002
   0.43719681  0.12560261  0.50000000       0.002
   0.43478130  0.13043348  0.50000000       0.002
   0.43236580  0.13526435  0.50000000       0.002
   0.42995029  0.14009522  0.50000000       0.002
   0.42753478  0.14492609  0.50000000       0.002
   0.42511928  0.14975696  0.50000000       0.002
   0.42270377  0.15458783  0.50000000       0.002
   0.42028826  0.15941870  0.50000000       0.002
   0.41787275  0.16424957  0.50000000       0.002
   0.41545725  0.16908043  0.50000000       0.002
   0.41304174  0.17391130  0.50000000       0.002
   0.41062623  0.17874217  0.50000000       0.002
   0.40821072  0.18357304  0.50000000       0.002
   0.40579522  0.18840391  0.50000000       0.002
   0.40337971  0.19323478  0.50000000       0.002
   0.40096420  0.19806565  0.50000000       0.002
   0.39854870  0.20289652  0.50000000       0.002
   0.39613319  0.20772739  0.50000000       0.002
   0.39371768  0.21255826  0.50000000       0.002
   0.39130217  0.21738913  0.50000000       0.002
   0.38888667  0.22222000  0.50000000       0.002
   0.38647116  0.22705087  0.50000000       0.002
   0.38405565  0.23188174  0.50000000       0.002
   0.38164014  0.23671261  0.50000000       0.002
   0.37922464  0.24154348  0.50000000       0.002
   0.37680913  0.24637435  0.50000000       0.002
   0.37439362  0.25120522  0.50000000       0.002
   0.37197812  0.25603609  0.50000000       0.002
   0.36956261  0.26086696  0.50000000       0.002
   0.36714710  0.26569783  0.50000000       0.002
   0.36473159  0.27052870  0.50000000       0.002
   0.36231609  0.27535957  0.50000000       0.002
   0.35990058  0.28019043  0.50000000       0.002
   0.35748507  0.28502130  0.50000000       0.002
   0.35506957  0.28985217  0.50000000       0.002
   0.35265406  0.29468304  0.50000000       0.002
   0.35023855  0.29951391  0.50000000       0.002
   0.34782304  0.30434478  0.50000000       0.002
   0.34540754  0.30917565  0.50000000       0.002
   0.34299203  0.31400652  0.50000000       0.002
   0.34057652  0.31883739  0.50000000       0.002
   0.33816101  0.32366826  0.50000000       0.002
   0.33574551  0.32849913  0.50000000       0.002
   0.33333000  0.33333000  0.50000000       0.002
   0.33333000  0.33333000  0.50000000       0.002
   0.32849913  0.32849913  0.50000000       0.002
   0.32366826  0.32366826  0.50000000       0.002
   0.31883739  0.31883739  0.50000000       0.002
   0.31400652  0.31400652  0.50000000       0.002
   0.30917565  0.30917565  0.50000000       0.002
   0.30434478  0.30434478  0.50000000       0.002
   0.29951391  0.29951391  0.50000000       0.002
   0.29468304  0.29468304  0.50000000       0.002
   0.28985217  0.28985217  0.50000000       0.002
   0.28502130  0.28502130  0.50000000       0.002
   0.28019043  0.28019043  0.50000000       0.002
   0.27535957  0.27535957  0.50000000       0.002
   0.27052870  0.27052870  0.50000000       0.002
   0.26569783  0.26569783  0.50000000       0.002
   0.26086696  0.26086696  0.50000000       0.002
   0.25603609  0.25603609  0.50000000       0.002
   0.25120522  0.25120522  0.50000000       0.002
   0.24637435  0.24637435  0.50000000       0.002
   0.24154348  0.24154348  0.50000000       0.002
   0.23671261  0.23671261  0.50000000       0.002
   0.23188174  0.23188174  0.50000000       0.002
   0.22705087  0.22705087  0.50000000       0.002
   0.22222000  0.22222000  0.50000000       0.002
   0.21738913  0.21738913  0.50000000       0.002
   0.21255826  0.21255826  0.50000000       0.002
   0.20772739  0.20772739  0.50000000       0.002
   0.20289652  0.20289652  0.50000000       0.002
   0.19806565  0.19806565  0.50000000       0.002
   0.19323478  0.19323478  0.50000000       0.002
   0.18840391  0.18840391  0.50000000       0.002
   0.18357304  0.18357304  0.50000000       0.002
   0.17874217  0.17874217  0.50000000       0.002
   0.17391130  0.17391130  0.50000000       0.002
   0.16908043  0.16908043  0.50000000       0.002
   0.16424957  0.16424957  0.50000000       0.002
   0.15941870  0.15941870  0.50000000       0.002
   0.15458783  0.15458783  0.50000000       0.002
   0.14975696  0.14975696  0.50000000       0.002
   0.14492609  0.14492609  0.50000000       0.002
   0.14009522  0.14009522  0.50000000       0.002
   0.13526435  0.13526435  0.50000000       0.002
   0.13043348  0.13043348  0.50000000       0.002
   0.12560261  0.12560261  0.50000000       0.002
   0.12077174  0.12077174  0.50000000       0.002
   0.11594087  0.11594087  0.50000000       0.002
   0.11111000  0.11111000  0.50000000       0.002
   0.10627913  0.10627913  0.50000000       0.002
   0.10144826  0.10144826  0.50000000       0.002
   0.09661739  0.09661739  0.50000000       0.002
   0.09178652  0.09178652  0.50000000       0.002
   0.08695565  0.08695565  0.50000000       0.002
   0.08212478  0.08212478  0.50000000       0.002
   0.07729391  0.07729391  0.50000000       0.002
   0.07246304  0.07246304  0.50000000       0.002
   0.06763217  0.06763217  0.50000000       0.002
   0.06280130  0.06280130  0.50000000       0.002
   0.05797043  0.05797043  0.50000000       0.002
   0.05313957  0.05313957  0.50000000       0.002
   0.04830870  0.04830870  0.50000000       0.002
   0.04347783  0.04347783  0.50000000       0.002
   0.03864696  0.03864696  0.50000000       0.002
   0.03381609  0.03381609  0.50000000       0.002
   0.02898522  0.02898522  0.50000000       0.002
   0.02415435  0.02415435  0.50000000       0.002
   0.01932348  0.01932348  0.50000000       0.002
   0.01449261  0.01449261  0.50000000       0.002
   0.00966174  0.00966174  0.50000000       0.002
   0.00483087  0.00483087  0.50000000       0.002
   0.00000000  0.00000000  0.50000000       0.002
 
 position of ions in fractional coordinates (direct lattice) 
   0.33333501  0.16666500  0.24942000
   0.33333501  0.16666500  0.74941999
   0.33333501  0.66666502  0.24942000
   0.33333501  0.66666502  0.74941999
   0.83333504  0.16666500  0.24942000
   0.83333504  0.16666500  0.74941999
   0.83333504  0.66666502  0.24942000
   0.83333504  0.66666502  0.74941999
   0.16666500  0.33333501  0.49941999
   0.16666500  0.33333501  0.99941999
   0.16666500  0.83333504  0.49941999
   0.16666500  0.83333504  0.99941999
   0.66666502  0.33333501  0.49941999
   0.66666502  0.33333501  0.99941999
   0.66666502  0.83333504  0.49941999
   0.66666502  0.83333504  0.99941999
   0.33333501  0.16666500  0.43808001
   0.33333501  0.16666500  0.93808001
   0.33333501  0.66666502  0.43808001
   0.33333501  0.66666502  0.93808001
   0.83333504  0.16666500  0.43808001
   0.83333504  0.16666500  0.93808001
   0.83333504  0.66666502  0.43808001
   0.83333504  0.66666502  0.93808001
   0.16666500  0.33333501  0.18808000
   0.16666500  0.33333501  0.68808001
   0.16666500  0.83333504  0.18808000
   0.16666500  0.83333504  0.68808001
   0.66666502  0.33333501  0.18808000
   0.66666502  0.33333501  0.68808001
   0.66666502  0.83333504  0.18808000
   0.66666502  0.83333504  0.68808001
 
 position of ions in cartesian coordinates  (Angst):
   1.53494886  0.88618539  2.49139297
   1.53494886  0.88618539  7.48576566
   0.00001537  3.54476819  2.49139297
   0.00001537  3.54476819  7.48576566
   4.60481594  0.88618539  2.49139297
   4.60481594  0.88618539  7.48576566
   3.06988245  3.54476819  2.49139297
   3.06988245  3.54476819  7.48576566
  -0.00001537  1.77239740  4.98857924
  -0.00001537  1.77239740  9.98295209
  -1.53494891  4.43098028  4.98857924
  -1.53494891  4.43098028  9.98295209
   3.06985162  1.77239740  4.98857924
   3.06985162  1.77239740  9.98295209
   1.53491808  4.43098028  4.98857924
   1.53491808  4.43098028  9.98295209
   1.53494886  0.88618539  4.37586984
   1.53494886  0.88618539  9.37024269
   0.00001537  3.54476819  4.37586984
   0.00001537  3.54476819  9.37024269
   4.60481594  0.88618539  4.37586984
   4.60481594  0.88618539  9.37024269
   3.06988245  3.54476819  4.37586984
   3.06988245  3.54476819  9.37024269
  -0.00001537  1.77239740  1.87868327
  -0.00001537  1.77239740  6.87305626
  -1.53494891  4.43098028  1.87868327
  -1.53494891  4.43098028  6.87305626
   3.06985162  1.77239740  1.87868327
   3.06985162  1.77239740  6.87305626
   1.53491808  4.43098028  1.87868327
   1.53491808  4.43098028  6.87305626
 


--------------------------------------------------------------------------------------------------------


 k-point  1 :   0.0000 0.0000 0.0000  plane waves:    8281
 k-point  2 :   0.0072 0.0000 0.0000  plane waves:    8281
 k-point  3 :   0.0145 0.0000 0.0000  plane waves:    8301
 k-point  4 :   0.0217 0.0000 0.0000  plane waves:    8301
 k-point  5 :   0.0290 0.0000 0.0000  plane waves:    8289
 k-point  6 :   0.0362 0.0000 0.0000  plane waves:    8289
 k-point  7 :   0.0435 0.0000 0.0000  plane waves:    8285
 k-point  8 :   0.0507 0.0000 0.0000  plane waves:    8283
 k-point  9 :   0.0580 0.0000 0.0000  plane waves:    8277
 k-point 10 :   0.0652 0.0000 0.0000  plane waves:    8275
 k-point 11 :   0.0725 0.0000 0.0000  plane waves:    8279
 k-point 12 :   0.0797 0.0000 0.0000  plane waves:    8275
 k-point 13 :   0.0870 0.0000 0.0000  plane waves:    8279
 k-point 14 :   0.0942 0.0000 0.0000  plane waves:    8291
 k-point 15 :   0.1014 0.0000 0.0000  plane waves:    8295
 k-point 16 :   0.1087 0.0000 0.0000  plane waves:    8297
 k-point 17 :   0.1159 0.0000 0.0000  plane waves:    8297
 k-point 18 :   0.1232 0.0000 0.0000  plane waves:    8297
 k-point 19 :   0.1304 0.0000 0.0000  plane waves:    8297
 k-point 20 :   0.1377 0.0000 0.0000  plane waves:    8301
 k-point 21 :   0.1449 0.0000 0.0000  plane waves:    8293
 k-point 22 :   0.1522 0.0000 0.0000  plane waves:    8293
 k-point 23 :   0.1594 0.0000 0.0000  plane waves:    8285
 k-point 24 :   0.1667 0.0000 0.0000  plane waves:    8279
 k-point 25 :   0.1739 0.0000 0.0000  plane waves:    8273
 k-point 26 :   0.1812 0.0000 0.0000  plane waves:    8269
 k-point 27 :   0.1884 0.0000 0.0000  plane waves:    8271
 k-point 28 :   0.1957 0.0000 0.0000  plane waves:    8275
 k-point 29 :   0.2029 0.0000 0.0000  plane waves:    8285
 k-point 30 :   0.2101 0.0000 0.0000  plane waves:    8289
 k-point 31 :   0.2174 0.0000 0.0000  plane waves:    8283
 k-point 32 :   0.2246 0.0000 0.0000  plane waves:    8297
 k-point 33 :   0.2319 0.0000 0.0000  plane waves:    8297
 k-point 34 :   0.2391 0.0000 0.0000  plane waves:    8289
 k-point 35 :   0.2464 0.0000 0.0000  plane waves:    8297
 k-point 36 :   0.2536 0.0000 0.0000  plane waves:    8293
 k-point 37 :   0.2609 0.0000 0.0000  plane waves:    8297
 k-point 38 :   0.2681 0.0000 0.0000  plane waves:    8295
 k-point 39 :   0.2754 0.0000 0.0000  plane waves:    8301
 k-point 40 :   0.2826 0.0000 0.0000  plane waves:    8293
 k-point 41 :   0.2899 0.0000 0.0000  plane waves:    8293
 k-point 42 :   0.2971 0.0000 0.0000  plane waves:    8289
 k-point 43 :   0.3043 0.0000 0.0000  plane waves:    8283
 k-point 44 :   0.3116 0.0000 0.0000  plane waves:    8288
 k-point 45 :   0.3188 0.0000 0.0000  plane waves:    8288
 k-point 46 :   0.3261 0.0000 0.0000  plane waves:    8276
 k-point 47 :   0.3333 0.0000 0.0000  plane waves:    8268
 k-point 48 :   0.3406 0.0000 0.0000  plane waves:    8272
 k-point 49 :   0.3478 0.0000 0.0000  plane waves:    8272
 k-point 50 :   0.3551 0.0000 0.0000  plane waves:    8264
 k-point 51 :   0.3623 0.0000 0.0000  plane waves:    8262
 k-point 52 :   0.3696 0.0000 0.0000  plane waves:    8266
 k-point 53 :   0.3768 0.0000 0.0000  plane waves:    8262
 k-point 54 :   0.3841 0.0000 0.0000  plane waves:    8258
 k-point 55 :   0.3913 0.0000 0.0000  plane waves:    8262
[...]
  o =  0.9918  v =  0.0000  0.0000  0.0000  0.0000  0.0000  0.0000  0.0000  0.0000  0.0000  1.0000      0.0000  0.0000  0.0000  0.0000  0.0000  0.0000  0.0000  0.0000  0.0000  0.0000
atom =  11  type =  1  l = 2
 
 onsite density matrix
 
spin component  1
 
  0.9918  0.0000  0.0000  0.0000  0.0000
  0.0000  0.9918  0.0000  0.0000  0.0000
  0.0000  0.0000  0.9918  0.0000  0.0000
  0.0000  0.0000  0.0000  0.9918  0.0000
  0.0000  0.0000  0.0000  0.0000  0.9918
 
spin component  2
 
  0.9918  0.0000  0.0000  0.0000  0.0000
  0.0000  0.9918  0.0000  0.0000  0.0000
  0.0000  0.0000  0.9918  0.0000  0.0000
  0.0000  0.0000  0.0000  0.9918  0.0000
  0.0000  0.0000  0.0000  0.0000  0.9918
 
 occupancies and eigenvectors
 
  o =  0.9918  v =  1.0000  0.0000  0.0000  0.0000  0.0000  0.0000  0.0000  0.0000  0.0000  0.0000      0.0000  0.0000  0.0000  0.0000  0.0000  0.0000  0.0000  0.0000  0.0000  0.0000
  o =  0.9918  v =  0.0000  1.0000  0.0000  0.0000  0.0000  0.0000  0.0000  0.0000  0.0000  0.0000      0.0000  0.0000  0.0000  0.0000  0.0000  0.0000  0.0000  0.0000  0.0000  0.0000
  o =  0.9918  v =  0.0000  0.0000  1.0000  0.0000  0.0000  0.0000  0.0000  0.0000  0.0000  0.0000      0.0000  0.0000  0.0000  0.0000  0.0000  0.0000  0.0000  0.0000  0.0000  0.0000
  o =  0.9918  v =  0.0000  0.0000  0.0000  1.0000  0.0000  0.0000  0.0000  0.0000  0.0000  0.0000      0.0000  0.0000  0.0000  0.0000  0.0000  0.0000  0.0000  0.0000  0.0000  0.0000
  o =  0.9918  v =  0.0000  0.0000  0.0000  0.0000  1.0000  0.0000  0.0000  0.0000  0.0000  0.0000      0.0000  0.0000  0.0000  0.0000  0.0000  0.0000  0.0000  0.0000  0.0000  0.0000
  o =  0.9918  v =  0.0000  0.0000  0.0000  0.0000  0.0000  1.0000  0.0000  0.0000  0.0000  0.0000      0.0000  0.0000  0.0000  0.0000  0.0000  0.0000  0.0000  0.0000  0.0000  0.0000
  o =  0.9918  v =  0.0000  0.0000  0.0000  0.0000  0.0000  0.0000  1.0000  0.0000  0.0000  0.0000      0.0000  0.0000  0.0000  0.0000  0.0000  0.0000  0.0000  0.0000  0.0000  0.0000
  o =  0.9918  v =  0.0000  0.0000  0.0000  0.0000  0.0000  0.0000  0.0000  1.0000  0.0000  0.0000      0.0000  0.0000  0.0000  0.0000  0.0000  0.0000  0.0000  0.0000  0.0000  0.0000
  o =  0.9918  v =  0.0000  0.0000  0.0000  0.0000  0.0000  0.0000  0.0000  0.0000  1.0000  0.0000      0.0000  0.0000  0.0000  0.0000  0.0000  0.0000  0.0000  0.0000  0.0000  0.0000
  o =  0.9918  v =  0.0000  0.0000  0.0000  0.0000  0.0000  0.0000  0.0000  0.0000  0.0000  1.0000      0.0000  0.0000  0.0000  0.0000  0.0000  0.0000  0.0000  0.0000  0.0000  0.0000
atom =  12  type =  1  l = 2
 
 onsite density matrix
 
spin component  1
 
  0.9918  0.0000  0.0000  0.0000  0.0000
  0.0000  0.9918  0.0000  0.0000  0.0000
  0.0000  0.0000  0.9918  0.0000  0.0000
  0.0000  0.0000  0.0000  0.9918  0.0000
  0.0000  0.0000  0.0000  0.0000  0.9918
 
spin component  2
 
  0.9918  0.0000  0.0000  0.0000  0.0000
  0.0000  0.9918  0.0000  0.0000  0.0000
  0.0000  0.0000  0.9918  0.0000  0.0000
  0.0000  0.0000  0.0000  0.9918  0.0000
  0.0000  0.0000  0.0000  0.0000  0.9918
 
 occupancies and eigenvectors
 
  o =  0.9918  v =  1.0000  0.0000  0.0000  0.0000  0.0000  0.0000  0.0000  0.0000  0.0000  0.0000      0.0000  0.0000  0.0000  0.0000  0.0000  0.0000  0.0000  0.0000  0.0000  0.0000
  o =  0.9918  v =  0.0000  1.0000  0.0000  0.0000  0.0000  0.0000  0.0000  0.0000  0.0000  0.0000      0.0000  0.0000  0.0000  0.0000  0.0000  0.0000  0.0000  0.0000  0.0000  0.0000
  o =  0.9918  v =  0.0000  0.0000  1.0000  0.0000  0.0000  0.0000  0.0000  0.0000  0.0000  0.0000      0.0000  0.0000  0.0000  0.0000  0.0000  0.0000  0.0000  0.0000  0.0000  0.0000
  o =  0.9918  v =  0.0000  0.0000  0.0000  1.0000  0.0000  0.0000  0.0000  0.0000  0.0000  0.0000      0.0000  0.0000  0.0000  0.0000  0.0000  0.0000  0.0000  0.0000  0.0000  0.0000
  o =  0.9918  v =  0.0000  0.0000  0.0000  0.0000  1.0000  0.0000  0.0000  0.0000  0.0000  0.0000      0.0000  0.0000  0.0000  0.0000  0.0000  0.0000  0.0000  0.0000  0.0000  0.0000
  o =  0.9918  v =  0.0000  0.0000  0.0000  0.0000  0.0000  1.0000  0.0000  0.0000  0.0000  0.0000      0.0000  0.0000  0.0000  0.0000  0.0000  0.0000  0.0000  0.0000  0.0000  0.0000
  o =  0.9918  v =  0.0000  0.0000  0.0000  0.0000  0.0000  0.0000  1.0000  0.0000  0.0000  0.0000      0.0000  0.0000  0.0000  0.0000  0.0000  0.0000  0.0000  0.0000  0.0000  0.0000
  o =  0.9918  v =  0.0000  0.0000  0.0000  0.0000  0.0000  0.0000  0.0000  1.0000  0.0000  0.0000      0.0000  0.0000  0.0000  0.0000  0.0000  0.0000  0.0000  0.0000  0.0000  0.0000
  o =  0.9918  v =  0.0000  0.0000  0.0000  0.0000  0.0000  0.0000  0.0000  0.0000  1.0000  0.0000      0.0000  0.0000  0.0000  0.0000  0.0000  0.0000  0.0000  0.0000  0.0000  0.0000
  o =  0.9918  v =  0.0000  0.0000  0.0000  0.0000  0.0000  0.0000  0.0000  0.0000  0.0000  1.0000      0.0000  0.0000  0.0000  0.0000  0.0000  0.0000  0.0000  0.0000  0.0000  0.0000
atom =  13  type =  1  l = 2
 
 onsite density matrix
 
spin component  1
 
  0.9918  0.0000  0.0000  0.0000  0.0000
  0.0000  0.9918  0.0000  0.0000  0.0000
  0.0000  0.0000  0.9918  0.0000  0.0000
  0.0000  0.0000  0.0000  0.9918  0.0000
  0.0000  0.0000  0.0000  0.0000  0.9918
 
spin component  2
 
  0.9918  0.0000  0.0000  0.0000  0.0000
  0.0000  0.9918  0.0000  0.0000  0.0000
  0.0000  0.0000  0.9918  0.0000  0.0000
  0.0000  0.0000  0.0000  0.9918  0.0000
  0.0000  0.0000  0.0000  0.0000  0.9918
 
 occupancies and eigenvectors
 
  o =  0.9918  v =  1.0000  0.0000  0.0000  0.0000  0.0000  0.0000  0.0000  0.0000  0.0000  0.0000      0.0000  0.0000  0.0000  0.0000  0.0000  0.0000  0.0000  0.0000  0.0000  0.0000
  o =  0.9918  v =  0.0000  1.0000  0.0000  0.0000  0.0000  0.0000  0.0000  0.0000  0.0000  0.0000      0.0000  0.0000  0.0000  0.0000  0.0000  0.0000  0.0000  0.0000  0.0000  0.0000
  o =  0.9918  v =  0.0000  0.0000  1.0000  0.0000  0.0000  0.0000  0.0000  0.0000  0.0000  0.0000      0.0000  0.0000  0.0000  0.0000  0.0000  0.0000  0.0000  0.0000  0.0000  0.0000
  o =  0.9918  v =  0.0000  0.0000  0.0000  1.0000  0.0000  0.0000  0.0000  0.0000  0.0000  0.0000      0.0000  0.0000  0.0000  0.0000  0.0000  0.0000  0.0000  0.0000  0.0000  0.0000
  o =  0.9918  v =  0.0000  0.0000  0.0000  0.0000  1.0000  0.0000  0.0000  0.0000  0.0000  0.0000      0.0000  0.0000  0.0000  0.0000  0.0000  0.0000  0.0000  0.0000  0.0000  0.0000
  o =  0.9918  v =  0.0000  0.0000  0.0000  0.0000  0.0000  1.0000  0.0000  0.0000  0.0000  0.0000      0.0000  0.0000  0.0000  0.0000  0.0000  0.0000  0.0000  0.0000  0.0000  0.0000
  o =  0.9918  v =  0.0000  0.0000  0.0000  0.0000  0.0000  0.0000  1.0000  0.0000  0.0000  0.0000      0.0000  0.0000  0.0000  0.0000  0.0000  0.0000  0.0000  0.0000  0.0000  0.0000
  o =  0.9918  v =  0.0000  0.0000  0.0000  0.0000  0.0000  0.0000  0.0000  1.0000  0.0000  0.0000      0.0000  0.0000  0.0000  0.0000  0.0000  0.0000  0.0000  0.0000  0.0000  0.0000
  o =  0.9918  v =  0.0000  0.0000  0.0000  0.0000  0.0000  0.0000  0.0000  0.0000  1.0000  0.0000      0.0000  0.0000  0.0000  0.0000  0.0000  0.0000  0.0000  0.0000  0.0000  0.0000
  o =  0.9918  v =  0.0000  0.0000  0.0000  0.0000  0.0000  0.0000  0.0000  0.0000  0.0000  1.0000      0.0000  0.0000  0.0000  0.0000  0.0000  0.0000  0.0000  0.0000  0.0000  0.0000
atom =  14  type =  1  l = 2
 
 onsite density matrix
 
spin component  1
 
  0.9918  0.0000  0.0000  0.0000  0.0000
  0.0000  0.9918  0.0000  0.0000  0.0000
  0.0000  0.0000  0.9918  0.0000  0.0000
  0.0000  0.0000  0.0000  0.9918  0.0000
  0.0000  0.0000  0.0000  0.0000  0.9918
 
spin component  2
 
  0.9918  0.0000  0.0000  0.0000  0.0000
  0.0000  0.9918  0.0000  0.0000  0.0000
  0.0000  0.0000  0.9918  0.0000  0.0000
  0.0000  0.0000  0.0000  0.9918  0.0000
  0.0000  0.0000  0.0000  0.0000  0.9918
 
 occupancies and eigenvectors
 
  o =  0.9918  v =  1.0000  0.0000  0.0000  0.0000  0.0000  0.0000  0.0000  0.0000  0.0000  0.0000      0.0000  0.0000  0.0000  0.0000  0.0000  0.0000  0.0000  0.0000  0.0000  0.0000
  o =  0.9918  v =  0.0000  1.0000  0.0000  0.0000  0.0000  0.0000  0.0000  0.0000  0.0000  0.0000      0.0000  0.0000  0.0000  0.0000  0.0000  0.0000  0.0000  0.0000  0.0000  0.0000
  o =  0.9918  v =  0.0000  0.0000  1.0000  0.0000  0.0000  0.0000  0.0000  0.0000  0.0000  0.0000      0.0000  0.0000  0.0000  0.0000  0.0000  0.0000  0.0000  0.0000  0.0000  0.0000
  o =  0.9918  v =  0.0000  0.0000  0.0000  1.0000  0.0000  0.0000  0.0000  0.0000  0.0000  0.0000      0.0000  0.0000  0.0000  0.0000  0.0000  0.0000  0.0000  0.0000  0.0000  0.0000
  o =  0.9918  v =  0.0000  0.0000  0.0000  0.0000  1.0000  0.0000  0.0000  0.0000  0.0000  0.0000      0.0000  0.0000  0.0000  0.0000  0.0000  0.0000  0.0000  0.0000  0.0000  0.0000
  o =  0.9918  v =  0.0000  0.0000  0.0000  0.0000  0.0000  1.0000  0.0000  0.0000  0.0000  0.0000      0.0000  0.0000  0.0000  0.0000  0.0000  0.0000  0.0000  0.0000  0.0000  0.0000
  o =  0.9918  v =  0.0000  0.0000  0.0000  0.0000  0.0000  0.0000  1.0000  0.0000  0.0000  0.0000      0.0000  0.0000  0.0000  0.0000  0.0000  0.0000  0.0000  0.0000  0.0000  0.0000
  o =  0.9918  v =  0.0000  0.0000  0.0000  0.0000  0.0000  0.0000  0.0000  1.0000  0.0000  0.0000      0.0000  0.0000  0.0000  0.0000  0.0000  0.0000  0.0000  0.0000  0.0000  0.0000
  o =  0.9918  v =  0.0000  0.0000  0.0000  0.0000  0.0000  0.0000  0.0000  0.0000  1.0000  0.0000      0.0000  0.0000  0.0000  0.0000  0.0000  0.0000  0.0000  0.0000  0.0000  0.0000
  o =  0.9918  v =  0.0000  0.0000  0.0000  0.0000  0.0000  0.0000  0.0000  0.0000  0.0000  1.0000      0.0000  0.0000  0.0000  0.0000  0.0000  0.0000  0.0000  0.0000  0.0000  0.0000
atom =  15  type =  1  l = 2
 
 onsite density matrix
 
spin component  1
 
  0.9918  0.0000  0.0000  0.0000  0.0000
  0.0000  0.9918  0.0000  0.0000  0.0000
  0.0000  0.0000  0.9918  0.0000  0.0000
  0.0000  0.0000  0.0000  0.9918  0.0000
  0.0000  0.0000  0.0000  0.0000  0.9918
 
spin component  2
 
  0.9918  0.0000  0.0000  0.0000  0.0000
  0.0000  0.9918  0.0000  0.0000  0.0000
  0.0000  0.0000  0.9918  0.0000  0.0000
  0.0000  0.0000  0.0000  0.9918  0.0000
  0.0000  0.0000  0.0000  0.0000  0.9918
 
 occupancies and eigenvectors
 
  o =  0.9918  v =  1.0000  0.0000  0.0000  0.0000  0.0000  0.0000  0.0000  0.0000  0.0000  0.0000      0.0000  0.0000  0.0000  0.0000  0.0000  0.0000  0.0000  0.0000  0.0000  0.0000
  o =  0.9918  v =  0.0000  1.0000  0.0000  0.0000  0.0000  0.0000  0.0000  0.0000  0.0000  0.0000      0.0000  0.0000  0.0000  0.0000  0.0000  0.0000  0.0000  0.0000  0.0000  0.0000
  o =  0.9918  v =  0.0000  0.0000  1.0000  0.0000  0.0000  0.0000  0.0000  0.0000  0.0000  0.0000      0.0000  0.0000  0.0000  0.0000  0.0000  0.0000  0.0000  0.0000  0.0000  0.0000
  o =  0.9918  v =  0.0000  0.0000  0.0000  1.0000  0.0000  0.0000  0.0000  0.0000  0.0000  0.0000      0.0000  0.0000  0.0000  0.0000  0.0000  0.0000  0.0000  0.0000  0.0000  0.0000
  o =  0.9918  v =  0.0000  0.0000  0.0000  0.0000  1.0000  0.0000  0.0000  0.0000  0.0000  0.0000      0.0000  0.0000  0.0000  0.0000  0.0000  0.0000  0.0000  0.0000  0.0000  0.0000
  o =  0.9918  v =  0.0000  0.0000  0.0000  0.0000  0.0000  1.0000  0.0000  0.0000  0.0000  0.0000      0.0000  0.0000  0.0000  0.0000  0.0000  0.0000  0.0000  0.0000  0.0000  0.0000
  o =  0.9918  v =  0.0000  0.0000  0.0000  0.0000  0.0000  0.0000  1.0000  0.0000  0.0000  0.0000      0.0000  0.0000  0.0000  0.0000  0.0000  0.0000  0.0000  0.0000  0.0000  0.0000
  o =  0.9918  v =  0.0000  0.0000  0.0000  0.0000  0.0000  0.0000  0.0000  1.0000  0.0000  0.0000      0.0000  0.0000  0.0000  0.0000  0.0000  0.0000  0.0000  0.0000  0.0000  0.0000
  o =  0.9918  v =  0.0000  0.0000  0.0000  0.0000  0.0000  0.0000  0.0000  0.0000  1.0000  0.0000      0.0000  0.0000  0.0000  0.0000  0.0000  0.0000  0.0000  0.0000  0.0000  0.0000
  o =  0.9918  v =  0.0000  0.0000  0.0000  0.0000  0.0000  0.0000  0.0000  0.0000  0.0000  1.0000      0.0000  0.0000  0.0000  0.0000  0.0000  0.0000  0.0000  0.0000  0.0000  0.0000
atom =  16  type =  1  l = 2
 
 onsite density matrix
 
spin component  1
 
  0.9918  0.0000  0.0000  0.0000  0.0000
  0.0000  0.9918  0.0000  0.0000  0.0000
  0.0000  0.0000  0.9918  0.0000  0.0000
  0.0000  0.0000  0.0000  0.9918  0.0000
  0.0000  0.0000  0.0000  0.0000  0.9918
 
spin component  2
 
  0.9918  0.0000  0.0000  0.0000  0.0000
  0.0000  0.9918  0.0000  0.0000  0.0000
  0.0000  0.0000  0.9918  0.0000  0.0000
  0.0000  0.0000  0.0000  0.9918  0.0000
  0.0000  0.0000  0.0000  0.0000  0.9918
 
 occupancies and eigenvectors
 
  o =  0.9918  v =  1.0000  0.0000  0.0000  0.0000  0.0000  0.0000  0.0000  0.0000  0.0000  0.0000      0.0000  0.0000  0.0000  0.0000  0.0000  0.0000  0.0000  0.0000  0.0000  0.0000
  o =  0.9918  v =  0.0000  1.0000  0.0000  0.0000  0.0000  0.0000  0.0000  0.0000  0.0000  0.0000      0.0000  0.0000  0.0000  0.0000  0.0000  0.0000  0.0000  0.0000  0.0000  0.0000
  o =  0.9918  v =  0.0000  0.0000  1.0000  0.0000  0.0000  0.0000  0.0000  0.0000  0.0000  0.0000      0.0000  0.0000  0.0000  0.0000  0.0000  0.0000  0.0000  0.0000  0.0000  0.0000
  o =  0.9918  v =  0.0000  0.0000  0.0000  1.0000  0.0000  0.0000  0.0000  0.0000  0.0000  0.0000      0.0000  0.0000  0.0000  0.0000  0.0000  0.0000  0.0000  0.0000  0.0000  0.0000
  o =  0.9918  v =  0.0000  0.0000  0.0000  0.0000  1.0000  0.0000  0.0000  0.0000  0.0000  0.0000      0.0000  0.0000  0.0000  0.0000  0.0000  0.0000  0.0000  0.0000  0.0000  0.0000
  o =  0.9918  v =  0.0000  0.0000  0.0000  0.0000  0.0000  1.0000  0.0000  0.0000  0.0000  0.0000      0.0000  0.0000  0.0000  0.0000  0.0000  0.0000  0.0000  0.0000  0.0000  0.0000
  o =  0.9918  v =  0.0000  0.0000  0.0000  0.0000  0.0000  0.0000  1.0000  0.0000  0.0000  0.0000      0.0000  0.0000  0.0000  0.0000  0.0000  0.0000  0.0000  0.0000  0.0000  0.0000
  o =  0.9918  v =  0.0000  0.0000  0.0000  0.0000  0.0000  0.0000  0.0000  1.0000  0.0000  0.0000      0.0000  0.0000  0.0000  0.0000  0.0000  0.0000  0.0000  0.0000  0.0000  0.0000
  o =  0.9918  v =  0.0000  0.0000  0.0000  0.0000  0.0000  0.0000  0.0000  0.0000  1.0000  0.0000      0.0000  0.0000  0.0000  0.0000  0.0000  0.0000  0.0000  0.0000  0.0000  0.0000
  o =  0.9918  v =  0.0000  0.0000  0.0000  0.0000  0.0000  0.0000  0.0000  0.0000  0.0000  1.0000      0.0000  0.0000  0.0000  0.0000  0.0000  0.0000  0.0000  0.0000  0.0000  0.0000
     EDDAV:  cpu time 1418.2434: real time 1418.5525
       DOS:  cpu time    0.3869: real time    0.3875
    --------------------------------------------
      LOOP:  cpu time 1418.9183: real time 1419.2296

 eigenvalue-minimisations  :177000
 total energy-change (2. order) : 0.5157355E+04  (-0.1026960E+05)
 number of electron     288.0000000 magnetization 
 augmentation part      288.0000000 magnetization 

 Free energy of the ion-electron system (eV)
  ---------------------------------------------------
  alpha Z        PSCENC =      1772.36498030
  Ewald energy   TEWEN  =    -26371.61786599
  -Hartree energ DENC   =     -8750.37020178
  -exchange      EXHF   =         0.00000000
  -V(xc)+E(xc)   XCENC  =      1042.16483778
  PAW double counting   =     28929.41530562   -33758.04497412
  entropy T*S    EENTRO =        -0.00080582
  eigenvalues    EBANDS =      3679.65098481
  atomic energy  EATOM  =     38613.79245454
  Solvation  Ediel_sol  =         0.00000000
  ---------------------------------------------------
  free energy    TOTEN  =      5157.35471534 eV

  energy without entropy =     5157.35552116  energy(sigma->0) =     5157.35511825


--------------------------------------------------------------------------------------------------------




--------------------------------------- Iteration      1(   2)  ---------------------------------------


     EDDAV:  cpu time 1556.1434: real time 1556.4593
       DOS:  cpu time    0.4049: real time    0.4057
    --------------------------------------------
      LOOP:  cpu time 1556.5484: real time 1556.8650

 eigenvalue-minimisations  :168560
 total energy-change (2. order) :-0.4044615E+04  (-0.3806236E+04)
 number of electron     288.0000000 magnetization 
 augmentation part      288.0000000 magnetization 

 Free energy of the ion-electron system (eV)
  ---------------------------------------------------
  alpha Z        PSCENC =      1772.36498030
  Ewald energy   TEWEN  =    -26371.61786599
  -Hartree energ DENC   =     -8750.37020178
  -exchange      EXHF   =         0.00000000
  -V(xc)+E(xc)   XCENC  =      1042.16483778
  PAW double counting   =     28929.41530562   -33758.04497412
  entropy T*S    EENTRO =        -0.00164041
  eigenvalues    EBANDS =      -364.96335392
  atomic energy  EATOM  =     38613.79245454
  Solvation  Ediel_sol  =         0.00000000
  ---------------------------------------------------
  free energy    TOTEN  =      1112.73954201 eV

  energy without entropy =     1112.74118243  energy(sigma->0) =     1112.74036222


--------------------------------------------------------------------------------------------------------




--------------------------------------- Iteration      1(   3)  ---------------------------------------


     EDDAV:  cpu time 1599.2039: real time 1599.5367
       DOS:  cpu time    0.2930: real time    0.2930
    --------------------------------------------
      LOOP:  cpu time 1599.4968: real time 1599.8298

 eigenvalue-minimisations  :211104
 total energy-change (2. order) :-0.1193756E+04  (-0.1117254E+04)
 number of electron     288.0000000 magnetization 
 augmentation part      288.0000000 magnetization 

 Free energy of the ion-electron system (eV)
  ---------------------------------------------------
  alpha Z        PSCENC =      1772.36498030
  Ewald energy   TEWEN  =    -26371.61786599
  -Hartree energ DENC   =     -8750.37020178
  -exchange      EXHF   =         0.00000000
  -V(xc)+E(xc)   XCENC  =      1042.16483778
  PAW double counting   =     28929.41530562   -33758.04497412
  entropy T*S    EENTRO =        -0.00000000
  eigenvalues    EBANDS =     -1558.72125955
  atomic energy  EATOM  =     38613.79245454
  Solvation  Ediel_sol  =         0.00000000
  ---------------------------------------------------
  free energy    TOTEN  =       -81.01672321 eV

  energy without entropy =      -81.01672321  energy(sigma->0) =      -81.01672321


--------------------------------------------------------------------------------------------------------




--------------------------------------- Iteration      1(   4)  ---------------------------------------


     EDDAV:  cpu time 1559.1540: real time 1559.4632
       DOS:  cpu time    0.5249: real time    0.5246
    --------------------------------------------
      LOOP:  cpu time 1559.6789: real time 1559.9877

 eigenvalue-minimisations  :199216
 total energy-change (2. order) :-0.1485746E+03  (-0.1457929E+03)
 number of electron     288.0000000 magnetization 
 augmentation part      288.0000000 magnetization 

 Free energy of the ion-electron system (eV)
  ---------------------------------------------------
  alpha Z        PSCENC =      1772.36498030
  Ewald energy   TEWEN  =    -26371.61786599
  -Hartree energ DENC   =     -8750.37020178
  -exchange      EXHF   =         0.00000000
  -V(xc)+E(xc)   XCENC  =      1042.16483778
  PAW double counting   =     28929.41530562   -33758.04497412
  entropy T*S    EENTRO =        -0.00000000
  eigenvalues    EBANDS =     -1707.29582108
  atomic energy  EATOM  =     38613.79245454
  Solvation  Ediel_sol  =         0.00000000
  ---------------------------------------------------
  free energy    TOTEN  =      -229.59128474 eV

  energy without entropy =     -229.59128474  energy(sigma->0) =     -229.59128474


--------------------------------------------------------------------------------------------------------




--------------------------------------- Iteration      1(   5)  ---------------------------------------


