   4   4   1   0
  0.1019039E+02  0.3069867E-09  0.3069867E-09  0.4994373E-09  0.5000000E-15
  1.000000000000000E-004
  CAR 
 /net/hulk/PMD/skwon/GaN/Wurtzite/vasp/U 
     18.58834841    -12.65662129  301      6.31167907      1.00000000
    -12.657  0.0000E+00  0.0000E+00
    -12.552  0.0000E+00  0.0000E+00
    -12.448  0.0000E+00  0.0000E+00
    -12.344  0.0000E+00  0.0000E+00
    -12.240  0.0000E+00  0.0000E+00
    -12.136  0.0000E+00  0.0000E+00
    -12.032  0.0000E+00  0.0000E+00
    -11.928  0.0000E+00  0.0000E+00
    -11.823  0.0000E+00  0.0000E+00
    -11.719  0.0000E+00  0.0000E+00
    -11.615  0.0000E+00  0.0000E+00
    -11.511  0.0000E+00  0.0000E+00
    -11.407  0.3220E-15  0.3353E-16
    -11.303  0.9340E-03  0.9728E-04
    -11.199  0.4221E+01  0.4398E+00
    -11.094  0.1935E+02  0.2455E+01
    -10.990  0.5422E+01  0.3020E+01
    -10.886  0.4842E+01  0.3524E+01
    -10.782  0.1216E+01  0.3650E+01
    -10.678  0.1070E+01  0.3762E+01
    -10.574  0.9807E+00  0.3864E+01
    -10.469  0.5354E+01  0.4422E+01
    -10.365  0.2682E+02  0.7216E+01
    -10.261  0.2927E+02  0.1026E+02
    -10.157  0.1693E+02  0.1203E+02
    -10.053  0.1167E+01  0.1215E+02
     -9.949  0.1707E+01  0.1233E+02
     -9.845  0.1653E+02  0.1405E+02
     -9.740  0.4276E+02  0.1850E+02
     -9.636  0.1723E+02  0.2030E+02
     -9.532  0.5015E+00  0.2035E+02
     -9.428  0.3115E+00  0.2038E+02
     -9.324  0.2934E+00  0.2041E+02
     -9.220  0.2822E+00  0.2044E+02
     -9.116  0.2716E+00  0.2047E+02
     -9.011  0.2564E+00  0.2050E+02
     -8.907  0.2540E+00  0.2052E+02
     -8.803  0.2422E+00  0.2055E+02
     -8.699  0.9746E+00  0.2065E+02
     -8.595  0.1360E+01  0.2079E+02
     -8.491  0.8700E+00  0.2088E+02
     -8.386  0.7394E+00  0.2096E+02
     -8.282  0.6683E+00  0.2103E+02
     -8.178  0.6116E+00  0.2109E+02
     -8.074  0.5922E+00  0.2115E+02
     -7.970  0.5609E+00  0.2121E+02
     -7.866  0.5432E+00  0.2127E+02
     -7.762  0.5230E+00  0.2132E+02
     -7.657  0.5260E+00  0.2138E+02
     -7.553  0.5115E+00  0.2143E+02
     -7.449  0.5142E+00  0.2148E+02
     -7.345  0.5083E+00  0.2154E+02
     -7.241  0.5185E+00  0.2159E+02
     -7.137  0.5385E+00  0.2165E+02
     -7.033  0.5476E+00  0.2170E+02
     -6.928  0.5961E+00  0.2177E+02
     -6.824  0.1187E+01  0.2189E+02
     -6.720  0.1213E+01  0.2202E+02
     -6.616  0.1854E+01  0.2221E+02
     -6.512  0.1303E+01  0.2235E+02
     -6.408  0.2004E+01  0.2255E+02
     -6.303  0.2481E+01  0.2281E+02
     -6.199  0.1823E+01  0.2300E+02
     -6.095  0.1948E+01  0.2321E+02
     -5.991  0.2665E+01  0.2348E+02
     -5.887  0.2669E+01  0.2376E+02
     -5.783  0.1614E+01  0.2393E+02
     -5.679  0.6293E+00  0.2399E+02
     -5.574  0.5621E-01  0.2400E+02
     -5.470  0.1408E-08  0.2400E+02
     -5.366  0.0000E+00  0.2400E+02
     -5.262  0.0000E+00  0.2400E+02
     -5.158  0.0000E+00  0.2400E+02
     -5.054  0.0000E+00  0.2400E+02
     -4.950  0.0000E+00  0.2400E+02
     -4.845  0.0000E+00  0.2400E+02
     -4.741  0.0000E+00  0.2400E+02
     -4.637  0.0000E+00  0.2400E+02
     -4.533  0.0000E+00  0.2400E+02
     -4.429  0.0000E+00  0.2400E+02
     -4.325  0.0000E+00  0.2400E+02
     -4.220  0.0000E+00  0.2400E+02
     -4.116  0.0000E+00  0.2400E+02
     -4.012  0.0000E+00  0.2400E+02
     -3.908  0.0000E+00  0.2400E+02
     -3.804  0.0000E+00  0.2400E+02
     -3.700  0.0000E+00  0.2400E+02
     -3.596  0.0000E+00  0.2400E+02
     -3.491  0.0000E+00  0.2400E+02
     -3.387  0.0000E+00  0.2400E+02
     -3.283  0.0000E+00  0.2400E+02
     -3.179  0.0000E+00  0.2400E+02
     -3.075  0.0000E+00  0.2400E+02
     -2.971  0.0000E+00  0.2400E+02
     -2.867  0.0000E+00  0.2400E+02
     -2.762  0.0000E+00  0.2400E+02
     -2.658  0.0000E+00  0.2400E+02
     -2.554  0.0000E+00  0.2400E+02
     -2.450  0.0000E+00  0.2400E+02
     -2.346  0.0000E+00  0.2400E+02
     -2.242  0.0000E+00  0.2400E+02
     -2.137  0.0000E+00  0.2400E+02
     -2.033  0.0000E+00  0.2400E+02
     -1.929  0.0000E+00  0.2400E+02
     -1.825  0.0000E+00  0.2400E+02
     -1.721  0.0000E+00  0.2400E+02
     -1.617  0.0000E+00  0.2400E+02
     -1.513  0.0000E+00  0.2400E+02
     -1.408  0.0000E+00  0.2400E+02
     -1.304  0.1094E-14  0.2400E+02
     -1.200  0.7322E-03  0.2400E+02
     -1.096  0.8010E+00  0.2408E+02
     -0.992  0.6780E+00  0.2415E+02
     -0.888  0.4451E+00  0.2420E+02
     -0.784  0.3635E+00  0.2424E+02
     -0.679  0.3188E+00  0.2427E+02
     -0.575  0.1674E+01  0.2445E+02
     -0.471  0.1561E+01  0.2461E+02
     -0.367  0.1939E+01  0.2481E+02
     -0.263  0.1561E+01  0.2497E+02
     -0.159  0.1383E+01  0.2512E+02
     -0.054  0.2033E+01  0.2533E+02
      0.050  0.1916E+01  0.2553E+02
      0.154  0.8563E+00  0.2562E+02
      0.258  0.8516E+00  0.2571E+02
      0.362  0.5700E+00  0.2577E+02
      0.466  0.5857E+00  0.2583E+02
      0.570  0.8875E+00  0.2592E+02
      0.675  0.1162E+01  0.2604E+02
      0.779  0.5370E+00  0.2610E+02
      0.883  0.5024E+00  0.2615E+02
      0.987  0.1906E+01  0.2635E+02
      1.091  0.2065E+01  0.2656E+02
      1.195  0.1539E+01  0.2672E+02
      1.299  0.5444E+00  0.2678E+02
      1.404  0.5061E+00  0.2683E+02
      1.508  0.5177E+00  0.2689E+02
      1.612  0.5609E+00  0.2694E+02
      1.716  0.9570E+00  0.2704E+02
      1.820  0.1573E+01  0.2721E+02
      1.924  0.1919E+01  0.2741E+02
      2.029  0.2289E+01  0.2765E+02
      2.133  0.1377E+01  0.2779E+02
      2.237  0.1514E+01  0.2795E+02
      2.341  0.3335E+01  0.2829E+02
      2.445  0.6266E+00  0.2836E+02
      2.549  0.7766E+00  0.2844E+02
      2.653  0.1074E+01  0.2855E+02
      2.758  0.8788E+00  0.2864E+02
      2.862  0.8354E+00  0.2873E+02
      2.966  0.8029E+00  0.2881E+02
      3.070  0.8010E+00  0.2890E+02
      3.174  0.8911E+00  0.2899E+02
      3.278  0.8626E+00  0.2908E+02
      3.382  0.9510E+00  0.2918E+02
      3.487  0.1487E+01  0.2933E+02
      3.591  0.1652E+01  0.2951E+02
      3.695  0.1364E+01  0.2965E+02
      3.799  0.1361E+01  0.2979E+02
      3.903  0.1886E+01  0.2999E+02
      4.007  0.1628E+01  0.3016E+02
      4.112  0.1852E+01  0.3035E+02
      4.216  0.2278E+01  0.3059E+02
      4.320  0.2118E+01  0.3081E+02
      4.424  0.3169E+01  0.3114E+02
      4.528  0.2801E+01  0.3143E+02
      4.632  0.2635E+01  0.3170E+02
      4.736  0.2937E+01  0.3201E+02
      4.841  0.3670E+01  0.3239E+02
      4.945  0.3118E+01  0.3272E+02
      5.049  0.1532E+01  0.3288E+02
      5.153  0.1668E+01  0.3305E+02
      5.257  0.3302E+01  0.3339E+02
      5.361  0.3589E+01  0.3377E+02
      5.465  0.2636E+01  0.3404E+02
      5.570  0.2631E+01  0.3432E+02
      5.674  0.3514E+01  0.3468E+02
      5.778  0.2420E+01  0.3493E+02
      5.882  0.1704E+01  0.3511E+02
      5.986  0.2003E+01  0.3532E+02
      6.090  0.3045E+01  0.3564E+02
      6.195  0.3480E+01  0.3600E+02
      6.299  0.9369E-02  0.3600E+02
      6.403  0.0000E+00  0.3600E+02
      6.507  0.0000E+00  0.3600E+02
      6.611  0.0000E+00  0.3600E+02
      6.715  0.0000E+00  0.3600E+02
      6.819  0.0000E+00  0.3600E+02
      6.924  0.0000E+00  0.3600E+02
      7.028  0.0000E+00  0.3600E+02
      7.132  0.0000E+00  0.3600E+02
      7.236  0.0000E+00  0.3600E+02
      7.340  0.0000E+00  0.3600E+02
      7.444  0.0000E+00  0.3600E+02
      7.548  0.0000E+00  0.3600E+02
      7.653  0.0000E+00  0.3600E+02
      7.757  0.0000E+00  0.3600E+02
      7.861  0.0000E+00  0.3600E+02
      7.965  0.0000E+00  0.3600E+02
      8.069  0.0000E+00  0.3600E+02
      8.173  0.0000E+00  0.3600E+02
      8.278  0.0000E+00  0.3600E+02
      8.382  0.0000E+00  0.3600E+02
      8.486  0.0000E+00  0.3600E+02
      8.590  0.0000E+00  0.3600E+02
      8.694  0.0000E+00  0.3600E+02
      8.798  0.0000E+00  0.3600E+02
      8.902  0.0000E+00  0.3600E+02
      9.007  0.0000E+00  0.3600E+02
      9.111  0.0000E+00  0.3600E+02
      9.215  0.0000E+00  0.3600E+02
      9.319  0.1062E-10  0.3600E+02
      9.423  0.1575E-01  0.3600E+02
      9.527  0.6191E+00  0.3607E+02
      9.631  0.3512E+00  0.3610E+02
      9.736  0.2701E+00  0.3613E+02
      9.840  0.2256E+00  0.3615E+02
      9.944  0.2125E+00  0.3618E+02
     10.048  0.1992E+00  0.3620E+02
     10.152  0.1990E+00  0.3622E+02
     10.256  0.1874E+00  0.3624E+02
     10.361  0.1773E+00  0.3626E+02
     10.465  0.1797E+00  0.3627E+02
     10.569  0.1834E+00  0.3629E+02
     10.673  0.1789E+00  0.3631E+02
     10.777  0.1753E+00  0.3633E+02
     10.881  0.1825E+00  0.3635E+02
     10.985  0.7623E+00  0.3643E+02
     11.090  0.1822E+01  0.3662E+02
     11.194  0.1254E+01  0.3675E+02
     11.298  0.1012E+01  0.3685E+02
     11.402  0.9281E+00  0.3695E+02
     11.506  0.1506E+01  0.3711E+02
     11.610  0.2256E+01  0.3734E+02
     11.714  0.1938E+01  0.3755E+02
     11.819  0.2843E+01  0.3784E+02
     11.923  0.2858E+01  0.3814E+02
     12.027  0.1379E+01  0.3828E+02
     12.131  0.1023E+01  0.3839E+02
     12.235  0.9751E+00  0.3849E+02
     12.339  0.9682E+00  0.3859E+02
     12.444  0.1551E+01  0.3875E+02
     12.548  0.2230E+01  0.3899E+02
     12.652  0.1474E+01  0.3914E+02
     12.756  0.1480E+01  0.3929E+02
     12.860  0.7813E+00  0.3937E+02
     12.964  0.7748E+00  0.3945E+02
     13.068  0.8718E+00  0.3955E+02
     13.173  0.9063E+00  0.3964E+02
     13.277  0.1570E+01  0.3980E+02
     13.381  0.8483E+00  0.3989E+02
     13.485  0.3831E+00  0.3993E+02
     13.589  0.4388E+00  0.3998E+02
     13.693  0.8193E+00  0.4006E+02
     13.797  0.6253E+00  0.4013E+02
     13.902  0.5952E+00  0.4019E+02
     14.006  0.5993E+00  0.4025E+02
     14.110  0.5814E+00  0.4031E+02
     14.214  0.5912E+00  0.4037E+02
     14.318  0.8322E+00  0.4046E+02
     14.422  0.1005E+01  0.4057E+02
     14.527  0.9721E+00  0.4067E+02
     14.631  0.2732E+01  0.4095E+02
     14.735  0.3143E+01  0.4128E+02
     14.839  0.2795E+01  0.4157E+02
     14.943  0.2902E+01  0.4187E+02
     15.047  0.1824E+01  0.4206E+02
     15.151  0.1132E+01  0.4218E+02
     15.256  0.1025E+01  0.4229E+02
     15.360  0.8580E+00  0.4238E+02
     15.464  0.1126E+01  0.4249E+02
     15.568  0.2012E+01  0.4270E+02
     15.672  0.1880E+01  0.4290E+02
     15.776  0.1024E+01  0.4301E+02
     15.880  0.9874E+00  0.4311E+02
     15.985  0.9973E+00  0.4321E+02
     16.089  0.1078E+01  0.4332E+02
     16.193  0.1513E+01  0.4348E+02
     16.297  0.1214E+01  0.4361E+02
     16.401  0.1141E+01  0.4373E+02
     16.505  0.2183E+00  0.4375E+02
     16.610  0.1805E+00  0.4377E+02
     16.714  0.1730E+00  0.4379E+02
     16.818  0.1730E+00  0.4380E+02
     16.922  0.1950E+00  0.4383E+02
     17.026  0.1498E+01  0.4398E+02
     17.130  0.1430E+00  0.4400E+02
     17.234  0.3772E-01  0.4400E+02
     17.339  0.3492E-04  0.4400E+02
     17.443  0.0000E+00  0.4400E+02
     17.547  0.0000E+00  0.4400E+02
     17.651  0.0000E+00  0.4400E+02
     17.755  0.0000E+00  0.4400E+02
     17.859  0.0000E+00  0.4400E+02
     17.963  0.0000E+00  0.4400E+02
     18.068  0.0000E+00  0.4400E+02
     18.172  0.0000E+00  0.4400E+02
     18.276  0.0000E+00  0.4400E+02
     18.380  0.0000E+00  0.4400E+02
     18.484  0.0000E+00  0.4400E+02
     18.588  0.0000E+00  0.4400E+02
     18.58834841    -12.65662129  301      6.31167907      1.00000000
    -12.657  0.0000E+00  0.0000E+00  0.0000E+00  0.0000E+00  0.0000E+00  0.0000E+00  0.0000E+00  0.0000E+00  0.0000E+00
    -12.552  0.0000E+00  0.0000E+00  0.0000E+00  0.0000E+00  0.0000E+00  0.0000E+00  0.0000E+00  0.0000E+00  0.0000E+00
    -12.448  0.0000E+00  0.0000E+00  0.0000E+00  0.0000E+00  0.0000E+00  0.0000E+00  0.0000E+00  0.0000E+00  0.0000E+00
    -12.344  0.0000E+00  0.0000E+00  0.0000E+00  0.0000E+00  0.0000E+00  0.0000E+00  0.0000E+00  0.0000E+00  0.0000E+00
    -12.240  0.0000E+00  0.0000E+00  0.0000E+00  0.0000E+00  0.0000E+00  0.0000E+00  0.0000E+00  0.0000E+00  0.0000E+00
    -12.136  0.0000E+00  0.0000E+00  0.0000E+00  0.0000E+00  0.0000E+00  0.0000E+00  0.0000E+00  0.0000E+00  0.0000E+00
    -12.032  0.0000E+00  0.0000E+00  0.0000E+00  0.0000E+00  0.0000E+00  0.0000E+00  0.0000E+00  0.0000E+00  0.0000E+00
    -11.928  0.0000E+00  0.0000E+00  0.0000E+00  0.0000E+00  0.0000E+00  0.0000E+00  0.0000E+00  0.0000E+00  0.0000E+00
    -11.823  0.0000E+00  0.0000E+00  0.0000E+00  0.0000E+00  0.0000E+00  0.0000E+00  0.0000E+00  0.0000E+00  0.0000E+00
    -11.719  0.0000E+00  0.0000E+00  0.0000E+00  0.0000E+00  0.0000E+00  0.0000E+00  0.0000E+00  0.0000E+00  0.0000E+00
    -11.615  0.0000E+00  0.0000E+00  0.0000E+00  0.0000E+00  0.0000E+00  0.0000E+00  0.0000E+00  0.0000E+00  0.0000E+00
    -11.511  0.0000E+00  0.0000E+00  0.0000E+00  0.0000E+00  0.0000E+00  0.0000E+00  0.0000E+00  0.0000E+00  0.0000E+00
    -11.407  0.1844E-19  0.3720E-18  0.7010E-18  0.1096E-17  0.4894E-16  0.5382E-17  0.4472E-16  0.1596E-16  0.1645E-16
    -11.303  0.7217E-07  0.1116E-05  0.2058E-05  0.3178E-05  0.1403E-03  0.1593E-04  0.1307E-03  0.4610E-04  0.4805E-04
    -11.199  0.4044E-02  0.7583E-02  0.1028E-01  0.1249E-01  0.5000E+00  0.1030E+00  0.6520E+00  0.1772E+00  0.2732E+00
    -11.094  0.8234E-01  0.3598E-01  0.4160E-01  0.5173E-01  0.2140E+01  0.6160E+00  0.2624E+01  0.9493E+00  0.1374E+01
    -10.990  0.5355E-01  0.7354E-02  0.1318E-01  0.8163E-02  0.4155E+00  0.1604E+00  0.9952E+00  0.1774E+00  0.3727E+00
    -10.886  0.7783E-01  0.2396E-02  0.1424E-01  0.2676E-02  0.1679E+00  0.6078E-01  0.1398E+01  0.6779E-01  0.1516E+00
    -10.782  0.2761E-01  0.6980E-03  0.1749E-02  0.7928E-03  0.8058E-01  0.2740E-01  0.2404E+00  0.3062E-01  0.7315E-01
    -10.678  0.2817E-01  0.3821E-03  0.1029E-02  0.4296E-03  0.7070E-01  0.2368E-01  0.2101E+00  0.2607E-01  0.6487E-01
    -10.574  0.2556E-01  0.1804E-03  0.5091E-03  0.2006E-03  0.6767E-01  0.2221E-01  0.1965E+00  0.2413E-01  0.6263E-01
    -10.469  0.1500E-01  0.3324E-03  0.3195E-03  0.3310E-03  0.7373E+00  0.2368E+00  0.6026E+00  0.2357E+00  0.7387E+00
    -10.365  0.1818E-02  0.2550E-02  0.9042E-03  0.2386E-02  0.4312E+01  0.1296E+01  0.1930E+01  0.1243E+01  0.4332E+01
    -10.261  0.5930E-02  0.2435E-02  0.2099E-02  0.2003E-02  0.3098E+01  0.1673E+01  0.5055E+01  0.1232E+01  0.3307E+01
    -10.157  0.1070E+00  0.1520E-02  0.6991E-03  0.8925E-03  0.1523E+01  0.9215E+00  0.2704E+01  0.5890E+00  0.2243E+01
    -10.053  0.6527E-01  0.7191E-04  0.1551E-03  0.6670E-04  0.6119E-01  0.1550E-01  0.1973E+00  0.2032E-01  0.4651E-01
     -9.949  0.5091E-01  0.1218E-03  0.4712E-03  0.1354E-03  0.1219E+00  0.1112E+00  0.4224E-01  0.3270E+00  0.5107E-01
     -9.845  0.4983E-01  0.8336E-03  0.2040E-02  0.1086E-02  0.1338E+01  0.2176E+01  0.2615E+00  0.3193E+01  0.9985E+00
     -9.740  0.4798E-01  0.1359E-02  0.3293E-02  0.1500E-02  0.2730E+01  0.7522E+01  0.1852E+00  0.7425E+01  0.3146E+01
     -9.636  0.3518E-01  0.5747E-03  0.7176E-03  0.5528E-03  0.7379E+00  0.3693E+01  0.2576E-01  0.2855E+01  0.1133E+01
     -9.532  0.3259E-01  0.3060E-03  0.6714E-03  0.3325E-03  0.1327E-01  0.5048E-01  0.1937E-01  0.2277E-01  0.2128E-01
     -9.428  0.3057E-01  0.3608E-03  0.7786E-03  0.3906E-03  0.7215E-02  0.3622E-02  0.1827E-01  0.4126E-02  0.5575E-02
     -9.324  0.2871E-01  0.4075E-03  0.8837E-03  0.4463E-03  0.6809E-02  0.2937E-02  0.1731E-01  0.3259E-02  0.5278E-02
     -9.220  0.2739E-01  0.4674E-03  0.9866E-03  0.5068E-03  0.6570E-02  0.2617E-02  0.1651E-01  0.2830E-02  0.5144E-02
     -9.116  0.2610E-01  0.5254E-03  0.1087E-02  0.5656E-03  0.6322E-02  0.2361E-02  0.1581E-01  0.2531E-02  0.4943E-02
     -9.011  0.2436E-01  0.5411E-03  0.1186E-02  0.6027E-03  0.5888E-02  0.2038E-02  0.1519E-01  0.2247E-02  0.4463E-02
     -8.907  0.2381E-01  0.6343E-03  0.1283E-02  0.6655E-03  0.5831E-02  0.2028E-02  0.1471E-01  0.2116E-02  0.4590E-02
     -8.803  0.2238E-01  0.6290E-03  0.1379E-02  0.7205E-03  0.5592E-02  0.1746E-02  0.1425E-01  0.1986E-02  0.4083E-02
     -8.699  0.8839E-01  0.7634E-03  0.1084E-01  0.8229E-03  0.5763E-02  0.2040E-02  0.9451E-01  0.2189E-02  0.4417E-02
     -8.595  0.1220E+00  0.1095E-02  0.1591E-01  0.1182E-02  0.7246E-02  0.4046E-02  0.1306E+00  0.4356E-02  0.5799E-02
     -8.491  0.7643E-01  0.1363E-02  0.9747E-02  0.1544E-02  0.8475E-02  0.4958E-02  0.7182E-01  0.5486E-02  0.6595E-02
     -8.386  0.6366E-01  0.1668E-02  0.8179E-02  0.1763E-02  0.8965E-02  0.5425E-02  0.5488E-01  0.5790E-02  0.7364E-02
     -8.282  0.5632E-01  0.1845E-02  0.7384E-02  0.2061E-02  0.9611E-02  0.5468E-02  0.4548E-01  0.6025E-02  0.7526E-02
     -8.178  0.5036E-01  0.1974E-02  0.6913E-02  0.2193E-02  0.9476E-02  0.5363E-02  0.3926E-01  0.5895E-02  0.7447E-02
     -8.074  0.4757E-01  0.2299E-02  0.6612E-02  0.2547E-02  0.1038E-01  0.5489E-02  0.3504E-01  0.6050E-02  0.8082E-02
     -7.970  0.4386E-01  0.2470E-02  0.6409E-02  0.2678E-02  0.1028E-01  0.5372E-02  0.3175E-01  0.5858E-02  0.8110E-02
     -7.866  0.4124E-01  0.2600E-02  0.6297E-02  0.2983E-02  0.1074E-01  0.5214E-02  0.2938E-01  0.5887E-02  0.8053E-02
     -7.762  0.3846E-01  0.2759E-02  0.6243E-02  0.3107E-02  0.1062E-01  0.5092E-02  0.2751E-01  0.5705E-02  0.8055E-02
     -7.657  0.3737E-01  0.3091E-02  0.6217E-02  0.3521E-02  0.1155E-01  0.5136E-02  0.2627E-01  0.5841E-02  0.8583E-02
     -7.553  0.3500E-01  0.3235E-02  0.6243E-02  0.3648E-02  0.1145E-01  0.5002E-02  0.2521E-01  0.5672E-02  0.8548E-02
     -7.449  0.3377E-01  0.3430E-02  0.6393E-02  0.4030E-02  0.1208E-01  0.4986E-02  0.2481E-01  0.5785E-02  0.8692E-02
     -7.345  0.3190E-01  0.3603E-02  0.6501E-02  0.4242E-02  0.1224E-01  0.4878E-02  0.2439E-01  0.5715E-02  0.8752E-02
     -7.241  0.3103E-01  0.3920E-02  0.6660E-02  0.4662E-02  0.1309E-01  0.4900E-02  0.2450E-01  0.5851E-02  0.9212E-02
     -7.137  0.3054E-01  0.4283E-02  0.7063E-02  0.5146E-02  0.1403E-01  0.5072E-02  0.2532E-01  0.6079E-02  0.9751E-02
     -7.033  0.2923E-01  0.4397E-02  0.7443E-02  0.5583E-02  0.1477E-01  0.4937E-02  0.2626E-01  0.6229E-02  0.9767E-02
     -6.928  0.2988E-01  0.4919E-02  0.8109E-02  0.6499E-02  0.1707E-01  0.5174E-02  0.2867E-01  0.6817E-02  0.1080E-01
     -6.824  0.5725E-01  0.9149E-02  0.1011E-01  0.1815E-01  0.5297E-01  0.8652E-02  0.4270E-01  0.1663E-01  0.2339E-01
     -6.720  0.5445E-01  0.9348E-02  0.1324E-01  0.1722E-01  0.4783E-01  0.8585E-02  0.5313E-01  0.1549E-01  0.2313E-01
     -6.616  0.7348E-01  0.9008E-02  0.4033E-01  0.1401E-01  0.3519E-01  0.8245E-02  0.1549E+00  0.1266E-01  0.2042E-01
     -6.512  0.4706E-01  0.1006E-01  0.2249E-01  0.1502E-01  0.3453E-01  0.9379E-02  0.8052E-01  0.1372E-01  0.2146E-01
     -6.408  0.5623E-01  0.1858E-01  0.2714E-01  0.3778E-01  0.7488E-01  0.1642E-01  0.7740E-01  0.3249E-01  0.3661E-01
     -6.303  0.6033E-01  0.2532E-01  0.3114E-01  0.5132E-01  0.9863E-01  0.2206E-01  0.7978E-01  0.4333E-01  0.5015E-01
     -6.199  0.3964E-01  0.2237E-01  0.2295E-01  0.3396E-01  0.6600E-01  0.1953E-01  0.6121E-01  0.2866E-01  0.4553E-01
     -6.095  0.3442E-01  0.2791E-01  0.2367E-01  0.3542E-01  0.6861E-01  0.2377E-01  0.6100E-01  0.2952E-01  0.5648E-01
     -5.991  0.3537E-01  0.4398E-01  0.3052E-01  0.4855E-01  0.9290E-01  0.3611E-01  0.7538E-01  0.3944E-01  0.8709E-01
     -5.887  0.1800E-01  0.3419E-01  0.3114E-01  0.7257E-01  0.8097E-01  0.2544E-01  0.1109E+00  0.4928E-01  0.4880E-01
     -5.783  0.8645E-02  0.2069E-01  0.2221E-01  0.3792E-01  0.4737E-01  0.1673E-01  0.7440E-01  0.2820E-01  0.3159E-01
     -5.679  0.1289E-02  0.1338E-01  0.9472E-02  0.7944E-02  0.1271E-01  0.1133E-01  0.3003E-01  0.6524E-02  0.2023E-01
     -5.574  0.2021E-04  0.1261E-02  0.8354E-03  0.6852E-03  0.1107E-02  0.1056E-02  0.2632E-02  0.5608E-03  0.1890E-02
     -5.470  0.1523E-12  0.3174E-10  0.2091E-10  0.1719E-10  0.2774E-10  0.2654E-10  0.6582E-10  0.1406E-10  0.4749E-10
     -5.366  0.0000E+00  0.0000E+00  0.0000E+00  0.0000E+00  0.0000E+00  0.0000E+00  0.0000E+00  0.0000E+00  0.0000E+00
     -5.262  0.0000E+00  0.0000E+00  0.0000E+00  0.0000E+00  0.0000E+00  0.0000E+00  0.0000E+00  0.0000E+00  0.0000E+00
     -5.158  0.0000E+00  0.0000E+00  0.0000E+00  0.0000E+00  0.0000E+00  0.0000E+00  0.0000E+00  0.0000E+00  0.0000E+00
     -5.054  0.0000E+00  0.0000E+00  0.0000E+00  0.0000E+00  0.0000E+00  0.0000E+00  0.0000E+00  0.0000E+00  0.0000E+00
     -4.950  0.0000E+00  0.0000E+00  0.0000E+00  0.0000E+00  0.0000E+00  0.0000E+00  0.0000E+00  0.0000E+00  0.0000E+00
     -4.845  0.0000E+00  0.0000E+00  0.0000E+00  0.0000E+00  0.0000E+00  0.0000E+00  0.0000E+00  0.0000E+00  0.0000E+00
     -4.741  0.0000E+00  0.0000E+00  0.0000E+00  0.0000E+00  0.0000E+00  0.0000E+00  0.0000E+00  0.0000E+00  0.0000E+00
     -4.637  0.0000E+00  0.0000E+00  0.0000E+00  0.0000E+00  0.0000E+00  0.0000E+00  0.0000E+00  0.0000E+00  0.0000E+00
     -4.533  0.0000E+00  0.0000E+00  0.0000E+00  0.0000E+00  0.0000E+00  0.0000E+00  0.0000E+00  0.0000E+00  0.0000E+00
     -4.429  0.0000E+00  0.0000E+00  0.0000E+00  0.0000E+00  0.0000E+00  0.0000E+00  0.0000E+00  0.0000E+00  0.0000E+00
     -4.325  0.0000E+00  0.0000E+00  0.0000E+00  0.0000E+00  0.0000E+00  0.0000E+00  0.0000E+00  0.0000E+00  0.0000E+00
     -4.220  0.0000E+00  0.0000E+00  0.0000E+00  0.0000E+00  0.0000E+00  0.0000E+00  0.0000E+00  0.0000E+00  0.0000E+00
     -4.116  0.0000E+00  0.0000E+00  0.0000E+00  0.0000E+00  0.0000E+00  0.0000E+00  0.0000E+00  0.0000E+00  0.0000E+00
     -4.012  0.0000E+00  0.0000E+00  0.0000E+00  0.0000E+00  0.0000E+00  0.0000E+00  0.0000E+00  0.0000E+00  0.0000E+00
     -3.908  0.0000E+00  0.0000E+00  0.0000E+00  0.0000E+00  0.0000E+00  0.0000E+00  0.0000E+00  0.0000E+00  0.0000E+00
     -3.804  0.0000E+00  0.0000E+00  0.0000E+00  0.0000E+00  0.0000E+00  0.0000E+00  0.0000E+00  0.0000E+00  0.0000E+00
     -3.700  0.0000E+00  0.0000E+00  0.0000E+00  0.0000E+00  0.0000E+00  0.0000E+00  0.0000E+00  0.0000E+00  0.0000E+00
     -3.596  0.0000E+00  0.0000E+00  0.0000E+00  0.0000E+00  0.0000E+00  0.0000E+00  0.0000E+00  0.0000E+00  0.0000E+00
     -3.491  0.0000E+00  0.0000E+00  0.0000E+00  0.0000E+00  0.0000E+00  0.0000E+00  0.0000E+00  0.0000E+00  0.0000E+00
     -3.387  0.0000E+00  0.0000E+00  0.0000E+00  0.0000E+00  0.0000E+00  0.0000E+00  0.0000E+00  0.0000E+00  0.0000E+00
     -3.283  0.0000E+00  0.0000E+00  0.0000E+00  0.0000E+00  0.0000E+00  0.0000E+00  0.0000E+00  0.0000E+00  0.0000E+00
     -3.179  0.0000E+00  0.0000E+00  0.0000E+00  0.0000E+00  0.0000E+00  0.0000E+00  0.0000E+00  0.0000E+00  0.0000E+00
     -3.075  0.0000E+00  0.0000E+00  0.0000E+00  0.0000E+00  0.0000E+00  0.0000E+00  0.0000E+00  0.0000E+00  0.0000E+00
     -2.971  0.0000E+00  0.0000E+00  0.0000E+00  0.0000E+00  0.0000E+00  0.0000E+00  0.0000E+00  0.0000E+00  0.0000E+00
     -2.867  0.0000E+00  0.0000E+00  0.0000E+00  0.0000E+00  0.0000E+00  0.0000E+00  0.0000E+00  0.0000E+00  0.0000E+00
     -2.762  0.0000E+00  0.0000E+00  0.0000E+00  0.0000E+00  0.0000E+00  0.0000E+00  0.0000E+00  0.0000E+00  0.0000E+00
     -2.658  0.0000E+00  0.0000E+00  0.0000E+00  0.0000E+00  0.0000E+00  0.0000E+00  0.0000E+00  0.0000E+00  0.0000E+00
     -2.554  0.0000E+00  0.0000E+00  0.0000E+00  0.0000E+00  0.0000E+00  0.0000E+00  0.0000E+00  0.0000E+00  0.0000E+00
     -2.450  0.0000E+00  0.0000E+00  0.0000E+00  0.0000E+00  0.0000E+00  0.0000E+00  0.0000E+00  0.0000E+00  0.0000E+00
     -2.346  0.0000E+00  0.0000E+00  0.0000E+00  0.0000E+00  0.0000E+00  0.0000E+00  0.0000E+00  0.0000E+00  0.0000E+00
     -2.242  0.0000E+00  0.0000E+00  0.0000E+00  0.0000E+00  0.0000E+00  0.0000E+00  0.0000E+00  0.0000E+00  0.0000E+00
     -2.137  0.0000E+00  0.0000E+00  0.0000E+00  0.0000E+00  0.0000E+00  0.0000E+00  0.0000E+00  0.0000E+00  0.0000E+00
     -2.033  0.0000E+00  0.0000E+00  0.0000E+00  0.0000E+00  0.0000E+00  0.0000E+00  0.0000E+00  0.0000E+00  0.0000E+00
     -1.929  0.0000E+00  0.0000E+00  0.0000E+00  0.0000E+00  0.0000E+00  0.0000E+00  0.0000E+00  0.0000E+00  0.0000E+00
     -1.825  0.0000E+00  0.0000E+00  0.0000E+00  0.0000E+00  0.0000E+00  0.0000E+00  0.0000E+00  0.0000E+00  0.0000E+00
     -1.721  0.0000E+00  0.0000E+00  0.0000E+00  0.0000E+00  0.0000E+00  0.0000E+00  0.0000E+00  0.0000E+00  0.0000E+00
     -1.617  0.0000E+00  0.0000E+00  0.0000E+00  0.0000E+00  0.0000E+00  0.0000E+00  0.0000E+00  0.0000E+00  0.0000E+00
     -1.513  0.0000E+00  0.0000E+00  0.0000E+00  0.0000E+00  0.0000E+00  0.0000E+00  0.0000E+00  0.0000E+00  0.0000E+00
     -1.408  0.0000E+00  0.0000E+00  0.0000E+00  0.0000E+00  0.0000E+00  0.0000E+00  0.0000E+00  0.0000E+00  0.0000E+00
     -1.304  0.1307E-15  0.2607E-20  0.7357E-16  0.2736E-20  0.1381E-21  0.2236E-20  0.3346E-17  0.2347E-20  0.1309E-21
     -1.200  0.8745E-04  0.4366E-08  0.4922E-04  0.4692E-08  0.2384E-09  0.3743E-08  0.2245E-05  0.4023E-08  0.2193E-09
     -1.096  0.9558E-01  0.2977E-04  0.5378E-01  0.3198E-04  0.1685E-05  0.2547E-04  0.2520E-02  0.2740E-04  0.1498E-05
     -0.992  0.8056E-01  0.1382E-03  0.4522E-01  0.1485E-03  0.8607E-05  0.1179E-03  0.2428E-02  0.1271E-03  0.7011E-05
     -0.888  0.5259E-01  0.1993E-03  0.2936E-01  0.2141E-03  0.1420E-04  0.1694E-03  0.1891E-02  0.1833E-03  0.1027E-04
     -0.784  0.4280E-01  0.2414E-03  0.2368E-01  0.2593E-03  0.1971E-04  0.2047E-03  0.1775E-02  0.2224E-03  0.1270E-04
     -0.679  0.3751E-01  0.2811E-03  0.2043E-01  0.3155E-03  0.2814E-04  0.2346E-03  0.1750E-02  0.2611E-03  0.1565E-04
     -0.575  0.2496E+00  0.1253E-01  0.2199E-01  0.3677E-01  0.4222E-02  0.4728E-02  0.2603E-02  0.1364E-01  0.1465E-02
     -0.471  0.2346E+00  0.1176E-01  0.2012E-01  0.3344E-01  0.3999E-02  0.4455E-02  0.2717E-02  0.1249E-01  0.1607E-02
     -0.367  0.2927E+00  0.1217E-01  0.2986E-01  0.3327E-01  0.1102E-01  0.3432E-02  0.5784E-02  0.9003E-02  0.4097E-02
     -0.263  0.2381E+00  0.1056E-01  0.2404E-01  0.2590E-01  0.7770E-02  0.3132E-02  0.4626E-02  0.7388E-02  0.3159E-02
     -0.159  0.2167E+00  0.9768E-02  0.2023E-01  0.2145E-01  0.5858E-02  0.3188E-02  0.3975E-02  0.6704E-02  0.2724E-02
     -0.054  0.3530E+00  0.1473E-01  0.2054E-01  0.2362E-01  0.6673E-02  0.6579E-02  0.4406E-02  0.9135E-02  0.4435E-02
      0.050  0.3310E+00  0.1616E-01  0.1855E-01  0.2027E-01  0.6397E-02  0.7547E-02  0.4762E-02  0.7559E-02  0.5209E-02
      0.154  0.1271E+00  0.8223E-02  0.1405E-01  0.1146E-01  0.3995E-02  0.2724E-02  0.3915E-02  0.2902E-02  0.2760E-02
      0.258  0.1305E+00  0.7894E-02  0.1283E-01  0.1060E-01  0.4117E-02  0.2453E-02  0.3891E-02  0.2716E-02  0.2730E-02
      0.362  0.7448E-01  0.7909E-02  0.8426E-02  0.9899E-02  0.2642E-02  0.2223E-02  0.3886E-02  0.2270E-02  0.2239E-02
      0.466  0.7769E-01  0.8572E-02  0.7722E-02  0.1026E-01  0.2552E-02  0.2151E-02  0.4111E-02  0.2153E-02  0.2297E-02
      0.570  0.1429E+00  0.1112E-01  0.6366E-02  0.1346E-01  0.2778E-02  0.2100E-02  0.4205E-02  0.2097E-02  0.2627E-02
      0.675  0.9304E-01  0.3992E-01  0.7504E-02  0.4624E-01  0.3059E-02  0.3144E-02  0.4740E-02  0.3895E-02  0.4086E-02
      0.779  0.6239E-01  0.8105E-02  0.6395E-02  0.1228E-01  0.2511E-02  0.1974E-02  0.4881E-02  0.2475E-02  0.3060E-02
      0.883  0.6198E-01  0.5444E-02  0.6222E-02  0.9399E-02  0.2671E-02  0.2186E-02  0.5136E-02  0.2831E-02  0.3295E-02
      0.987  0.2756E+00  0.1430E-01  0.2423E-01  0.3426E-01  0.3196E-02  0.8666E-02  0.7162E-02  0.2083E-01  0.3801E-02
      1.091  0.2811E+00  0.1669E-01  0.3947E-01  0.3593E-01  0.4795E-02  0.7937E-02  0.7381E-02  0.1784E-01  0.4901E-02
      1.195  0.1874E+00  0.1538E-01  0.3343E-01  0.3008E-01  0.4859E-02  0.5541E-02  0.7365E-02  0.1152E-01  0.4974E-02
      1.299  0.5080E-01  0.1002E-01  0.8089E-02  0.1353E-01  0.3618E-02  0.2042E-02  0.6496E-02  0.2468E-02  0.3542E-02
      1.404  0.4546E-01  0.9689E-02  0.6982E-02  0.1281E-01  0.3555E-02  0.1904E-02  0.6691E-02  0.2278E-02  0.3419E-02
      1.508  0.4544E-01  0.1022E-01  0.6922E-02  0.1285E-01  0.3565E-02  0.2099E-02  0.7362E-02  0.2187E-02  0.3783E-02
      1.612  0.4586E-01  0.1133E-01  0.9309E-02  0.1350E-01  0.3960E-02  0.2300E-02  0.8271E-02  0.2311E-02  0.4215E-02
      1.716  0.5673E-01  0.1943E-01  0.3563E-01  0.2084E-01  0.6662E-02  0.4063E-02  0.9235E-02  0.4609E-02  0.7796E-02
      1.820  0.6374E-01  0.5497E-01  0.3193E-01  0.5858E-01  0.7524E-02  0.1123E-01  0.1108E-01  0.1257E-01  0.6995E-02
      1.924  0.7930E-01  0.6393E-01  0.4549E-01  0.7021E-01  0.8581E-02  0.1290E-01  0.1357E-01  0.1395E-01  0.7238E-02
      2.029  0.1229E+00  0.5221E-01  0.8020E-01  0.6923E-01  0.1111E-01  0.1085E-01  0.1863E-01  0.1249E-01  0.7976E-02
      2.133  0.7212E-01  0.3568E-01  0.3154E-01  0.3840E-01  0.7293E-02  0.8385E-02  0.2312E-01  0.8283E-02  0.6728E-02
      2.237  0.8109E-01  0.3055E-01  0.3837E-01  0.2969E-01  0.7115E-02  0.7708E-02  0.4573E-01  0.7420E-02  0.6985E-02
      2.341  0.1878E+00  0.2739E-01  0.1355E+00  0.2596E-01  0.6370E-02  0.6851E-02  0.1595E+00  0.6398E-02  0.6190E-02
      2.445  0.2223E-01  0.2368E-01  0.1099E-01  0.2209E-01  0.4048E-02  0.4970E-02  0.5125E-02  0.4489E-02  0.3862E-02
      2.549  0.2118E-01  0.2948E-01  0.2267E-01  0.2382E-01  0.5584E-02  0.5265E-02  0.4649E-02  0.5456E-02  0.5003E-02
      2.653  0.2283E-01  0.4017E-01  0.4313E-01  0.2773E-01  0.7764E-02  0.5907E-02  0.6134E-02  0.6985E-02  0.6764E-02
      2.758  0.2222E-01  0.3367E-01  0.2821E-01  0.2511E-01  0.6225E-02  0.5565E-02  0.5639E-02  0.5694E-02  0.5709E-02
      2.862  0.2173E-01  0.3240E-01  0.2481E-01  0.2418E-01  0.5855E-02  0.5522E-02  0.5838E-02  0.5318E-02  0.5553E-02
      2.966  0.2133E-01  0.3126E-01  0.2262E-01  0.2297E-01  0.5799E-02  0.5371E-02  0.6166E-02  0.4902E-02  0.5565E-02
      3.070  0.2099E-01  0.3141E-01  0.2145E-01  0.2308E-01  0.6123E-02  0.5432E-02  0.6120E-02  0.4772E-02  0.5902E-02
      3.174  0.2208E-01  0.3350E-01  0.2544E-01  0.2514E-01  0.6901E-02  0.5998E-02  0.7487E-02  0.5214E-02  0.6707E-02
      3.278  0.2033E-01  0.3386E-01  0.2181E-01  0.2548E-01  0.6977E-02  0.6012E-02  0.6980E-02  0.5024E-02  0.6796E-02
      3.382  0.1917E-01  0.3822E-01  0.2158E-01  0.3005E-01  0.6984E-02  0.8018E-02  0.7977E-02  0.6394E-02  0.6818E-02
      3.487  0.1771E-01  0.6769E-01  0.2229E-01  0.5561E-01  0.7154E-02  0.1952E-01  0.8071E-02  0.1745E-01  0.7117E-02
      3.591  0.1747E-01  0.9273E-01  0.2388E-01  0.5411E-01  0.8495E-02  0.1455E-01  0.9533E-02  0.1207E-01  0.1040E-01