/net/hulk/PMD/skwon/GaN/Wurtzite/vasp/U 
           1
     3.069867    0.000000    0.000000
    -1.534934    2.658583    0.000000
     0.000000    0.000000    4.994373
   Ga   N 
   2   2
Direct configuration=     1
   0.66666702  0.33333299  0.49883860
   0.33333298  0.66666702  0.99883865
   0.66666702  0.33333299  0.87616137
   0.33333298  0.66666702  0.37616137
